
Host: adabbott

Timers On : Thu Sep  6 15:23:49 2018
Timers Off: Thu Sep  6 15:23:52 2018

Wall Time:        3.69 seconds

JK: (A|mn)                  :      0.050u      0.000s      0.048w     13 calls
JK: (A|Q)^-1/2              :      0.200u      0.000s      0.109w     13 calls
JK: (Q|mn)                  :      0.000u      0.000s      0.001w     13 calls
HF: Form H                  :      0.000u      0.000s      0.009w     13 calls
HF: Form S/X                :      0.000u      0.000s      0.001w     13 calls
HF: Guess                   :      0.850u      0.000s      0.492w     13 calls
SAD Guess                   :      0.817u      0.000s      0.472w     13 calls
HF: Form G                  :      0.017u      0.000s      0.018w    203 calls
JK: D                       :      0.000u      0.000s      0.000w    203 calls
JK: USO2AO                  :      0.000u      0.000s      0.000w    203 calls
JK: JK                      :      0.017u      0.000s      0.015w    203 calls
JK: J                       :      0.000u      0.000s      0.002w    203 calls
JK: J1                      :      0.000u      0.000s      0.001w    203 calls
JK: J2                      :      0.000u      0.000s      0.000w    203 calls
JK: K                       :      0.017u      0.000s      0.012w    203 calls
JK: K1                      :      0.017u      0.000s      0.009w    203 calls
JK: K2                      :      0.000u      0.000s      0.002w    203 calls
JK: AO2USO                  :      0.000u      0.000s      0.000w    203 calls
HF: Form F                  :      0.000u      0.000s      0.000w    203 calls
HF: DIIS                    :      0.000u      0.000s      0.016w    203 calls
DIISManager::add_entry      :      0.000u      0.000s      0.005w    190 calls
DIISManager::extrapolate    :      0.000u      0.000s      0.009w    177 calls
DIISManager::extrapolate: bMatrix setup:      0.000u      0.000s      0.004w    177 calls
DIISManager::extrapolate: bMatrix pseudoinverse:      0.000u      0.000s      0.003w    177 calls
DIISManager::extrapolate: form new data:      0.000u      0.000s      0.002w    177 calls
HF: Form C                  :      0.000u      0.000s      0.005w    203 calls
HF: Form D                  :      0.000u      0.000s      0.000w    203 calls
DFMP2 Singles               :      0.000u      0.000s      0.000w     13 calls
DFMP2 Aia                   :      0.233u      0.000s      0.145w     13 calls
DFMP2 (A|mn)                :      0.033u      0.000s      0.021w     13 calls
DFMP2 (A|mn)C_mi            :      0.000u      0.000s      0.000w     13 calls
DFMP2 (A|mi)C_na            :      0.000u      0.000s      0.000w     13 calls
DFMP2 Aia Write             :      0.000u      0.000s      0.000w     13 calls
DFMP2 Qia                   :      0.167u      0.000s      0.099w     13 calls
DFMP2 Metric                :      0.167u      0.000s      0.096w     13 calls
DFMP2 Aia Read              :      0.000u      0.000s      0.001w     13 calls
DFMP2 (Q|A)(A|ia)           :      0.000u      0.000s      0.000w     13 calls
DFMP2 Qia Write             :      0.000u      0.000s      0.000w     13 calls
DFMP2 Energy                :      0.000u      0.000s      0.003w     13 calls
DFMP2 Qia Read              :      0.000u      0.000s      0.000w     26 calls

-----------------------------------------------------------
JK: (A|mn)                  :      0.050u      0.000s      0.048w     13 calls
JK: (A|Q)^-1/2              :      0.200u      0.000s      0.109w     13 calls
JK: (Q|mn)                  :      0.000u      0.000s      0.001w     13 calls
HF: Form H                  :      0.000u      0.000s      0.009w     13 calls
HF: Form S/X                :      0.000u      0.000s      0.001w     13 calls
HF: Guess                   :      0.850u      0.000s      0.492w     13 calls
| SAD Guess                 :      0.817u      0.000s      0.472w     13 calls
HF: Form G                  :      0.017u      0.000s      0.018w    203 calls
| JK: D                     :      0.000u      0.000s      0.000w    203 calls
| JK: USO2AO                :      0.000u      0.000s      0.000w    203 calls
| JK: JK                    :      0.017u      0.000s      0.015w    203 calls
| | JK: J                   :      0.000u      0.000s      0.002w    203 calls
| | | JK: J1                :      0.000u      0.000s      0.001w    203 calls
| | | JK: J2                :      0.000u      0.000s      0.000w    203 calls
| | JK: K                   :      0.017u      0.000s      0.012w    203 calls
| | | JK: K1                :      0.017u      0.000s      0.009w    203 calls
| | | JK: K2                :      0.000u      0.000s      0.002w    203 calls
| JK: AO2USO                :      0.000u      0.000s      0.000w    203 calls
HF: Form F                  :      0.000u      0.000s      0.000w    203 calls
HF: DIIS                    :      0.000u      0.000s      0.016w    203 calls
| DIISManager::add_entry    :      0.000u      0.000s      0.005w    190 calls
| DIISManager::extrapolate  :      0.000u      0.000s      0.009w    177 calls
| | DIISManager::extrapolate: bMatrix setup:      0.000u      0.000s      0.004w    177 calls
| | DIISManager::extrapolate: bMatrix pseudoinverse:      0.000u      0.000s      0.003w    177 calls
| | DIISManager::extrapolate: form new data:      0.000u      0.000s      0.002w    177 calls
HF: Form C                  :      0.000u      0.000s      0.005w    203 calls
HF: Form D                  :      0.000u      0.000s      0.000w    203 calls
DFMP2 Singles               :      0.000u      0.000s      0.000w     13 calls
DFMP2 Aia                   :      0.233u      0.000s      0.145w     13 calls
| DFMP2 (A|mn)              :      0.033u      0.000s      0.021w     13 calls
| DFMP2 (A|mn)C_mi          :      0.000u      0.000s      0.000w     13 calls
| DFMP2 (A|mi)C_na          :      0.000u      0.000s      0.000w     13 calls
| DFMP2 Aia Write           :      0.000u      0.000s      0.000w     13 calls
DFMP2 Qia                   :      0.167u      0.000s      0.099w     13 calls
| DFMP2 Metric              :      0.167u      0.000s      0.096w     13 calls
| DFMP2 Aia Read            :      0.000u      0.000s      0.001w     13 calls
| DFMP2 (Q|A)(A|ia)         :      0.000u      0.000s      0.000w     13 calls
| DFMP2 Qia Write           :      0.000u      0.000s      0.000w     13 calls
DFMP2 Energy                :      0.000u      0.000s      0.003w     13 calls
| DFMP2 Qia Read            :      0.000u      0.000s      0.000w     26 calls

***********************************************************

Host: adabbott

Timers On : Thu Sep  6 15:24:34 2018
Timers Off: Thu Sep  6 15:24:44 2018

Wall Time:        9.61 seconds

JK: (A|mn)                  :      0.150u      0.000s      0.150w     37 calls
JK: (A|Q)^-1/2              :      0.583u      0.000s      0.321w     37 calls
JK: (Q|mn)                  :      0.000u      0.000s      0.003w     37 calls
HF: Form H                  :      0.017u      0.000s      0.033w     37 calls
HF: Form S/X                :      0.017u      0.000s      0.003w     37 calls
HF: Guess                   :      2.400u      0.000s      1.401w     37 calls
SAD Guess                   :      2.333u      0.000s      1.344w     37 calls
HF: Form G                  :      0.033u      0.017s      0.049w    574 calls
JK: D                       :      0.000u      0.000s      0.001w    574 calls
JK: USO2AO                  :      0.000u      0.000s      0.001w    574 calls
JK: JK                      :      0.033u      0.017s      0.043w    574 calls
JK: J                       :      0.000u      0.000s      0.005w    574 calls
JK: J1                      :      0.000u      0.000s      0.002w    574 calls
JK: J2                      :      0.000u      0.000s      0.001w    574 calls
JK: K                       :      0.033u      0.017s      0.033w    574 calls
JK: K1                      :      0.033u      0.000s      0.026w    574 calls
JK: K2                      :      0.000u      0.017s      0.006w    574 calls
JK: AO2USO                  :      0.000u      0.000s      0.000w    574 calls
HF: Form F                  :      0.000u      0.000s      0.001w    574 calls
HF: DIIS                    :      0.000u      0.000s      0.043w    574 calls
DIISManager::add_entry      :      0.000u      0.000s      0.013w    537 calls
DIISManager::extrapolate    :      0.000u      0.000s      0.026w    500 calls
DIISManager::extrapolate: bMatrix setup:      0.000u      0.000s      0.010w    500 calls
DIISManager::extrapolate: bMatrix pseudoinverse:      0.000u      0.000s      0.008w    500 calls
DIISManager::extrapolate: form new data:      0.000u      0.000s      0.006w    500 calls
HF: Form C                  :      0.033u      0.000s      0.014w    574 calls
HF: Form D                  :      0.017u      0.000s      0.001w    574 calls
DFMP2 Singles               :      0.000u      0.000s      0.001w     37 calls
DFMP2 Aia                   :      0.700u      0.033s      0.420w     37 calls
DFMP2 (A|mn)                :      0.100u      0.000s      0.060w     37 calls
DFMP2 (A|mn)C_mi            :      0.000u      0.000s      0.001w     37 calls
DFMP2 (A|mi)C_na            :      0.000u      0.000s      0.001w     37 calls
DFMP2 Aia Write             :      0.000u      0.000s      0.001w     37 calls
DFMP2 Qia                   :      0.450u      0.000s      0.286w     37 calls
DFMP2 Metric                :      0.433u      0.000s      0.277w     37 calls
DFMP2 Aia Read              :      0.000u      0.000s      0.003w     37 calls
DFMP2 (Q|A)(A|ia)           :      0.000u      0.000s      0.001w     37 calls
DFMP2 Qia Write             :      0.000u      0.000s      0.001w     37 calls
DFMP2 Energy                :      0.000u      0.000s      0.010w     37 calls
DFMP2 Qia Read              :      0.000u      0.000s      0.000w     74 calls

-----------------------------------------------------------
JK: (A|mn)                  :      0.150u      0.000s      0.150w     37 calls
JK: (A|Q)^-1/2              :      0.583u      0.000s      0.321w     37 calls
JK: (Q|mn)                  :      0.000u      0.000s      0.003w     37 calls
HF: Form H                  :      0.017u      0.000s      0.033w     37 calls
HF: Form S/X                :      0.017u      0.000s      0.003w     37 calls
HF: Guess                   :      2.400u      0.000s      1.401w     37 calls
| SAD Guess                 :      2.333u      0.000s      1.344w     37 calls
HF: Form G                  :      0.033u      0.017s      0.049w    574 calls
| JK: D                     :      0.000u      0.000s      0.001w    574 calls
| JK: USO2AO                :      0.000u      0.000s      0.001w    574 calls
| JK: JK                    :      0.033u      0.017s      0.043w    574 calls
| | JK: J                   :      0.000u      0.000s      0.005w    574 calls
| | | JK: J1                :      0.000u      0.000s      0.002w    574 calls
| | | JK: J2                :      0.000u      0.000s      0.001w    574 calls
| | JK: K                   :      0.033u      0.017s      0.033w    574 calls
| | | JK: K1                :      0.033u      0.000s      0.026w    574 calls
| | | JK: K2                :      0.000u      0.017s      0.006w    574 calls
| JK: AO2USO                :      0.000u      0.000s      0.000w    574 calls
HF: Form F                  :      0.000u      0.000s      0.001w    574 calls
HF: DIIS                    :      0.000u      0.000s      0.043w    574 calls
| DIISManager::add_entry    :      0.000u      0.000s      0.013w    537 calls
| DIISManager::extrapolate  :      0.000u      0.000s      0.026w    500 calls
| | DIISManager::extrapolate: bMatrix setup:      0.000u      0.000s      0.010w    500 calls
| | DIISManager::extrapolate: bMatrix pseudoinverse:      0.000u      0.000s      0.008w    500 calls
| | DIISManager::extrapolate: form new data:      0.000u      0.000s      0.006w    500 calls
HF: Form C                  :      0.033u      0.000s      0.014w    574 calls
HF: Form D                  :      0.017u      0.000s      0.001w    574 calls
DFMP2 Singles               :      0.000u      0.000s      0.001w     37 calls
DFMP2 Aia                   :      0.700u      0.033s      0.420w     37 calls
| DFMP2 (A|mn)              :      0.100u      0.000s      0.060w     37 calls
| DFMP2 (A|mn)C_mi          :      0.000u      0.000s      0.001w     37 calls
| DFMP2 (A|mi)C_na          :      0.000u      0.000s      0.001w     37 calls
| DFMP2 Aia Write           :      0.000u      0.000s      0.001w     37 calls
DFMP2 Qia                   :      0.450u      0.000s      0.286w     37 calls
| DFMP2 Metric              :      0.433u      0.000s      0.277w     37 calls
| DFMP2 Aia Read            :      0.000u      0.000s      0.003w     37 calls
| DFMP2 (Q|A)(A|ia)         :      0.000u      0.000s      0.001w     37 calls
| DFMP2 Qia Write           :      0.000u      0.000s      0.001w     37 calls
DFMP2 Energy                :      0.000u      0.000s      0.010w     37 calls
| DFMP2 Qia Read            :      0.000u      0.000s      0.000w     74 calls

***********************************************************

Host: adabbott

Timers On : Thu Sep  6 15:25:48 2018
Timers Off: Thu Sep  6 15:25:57 2018

Wall Time:        9.08 seconds

JK: (A|mn)                  :      0.300u      0.000s      0.157w     37 calls
JK: (A|Q)^-1/2              :      0.583u      0.000s      0.324w     37 calls
JK: (Q|mn)                  :      0.000u      0.000s      0.003w     37 calls
HF: Form H                  :      0.000u      0.000s      0.145w     37 calls
HF: Form S/X                :      0.000u      0.000s      0.003w     37 calls
HF: Guess                   :      2.367u      0.017s      1.445w     37 calls
SAD Guess                   :      2.283u      0.017s      1.382w     37 calls
HF: Form G                  :      0.050u      0.017s      0.051w    582 calls
JK: D                       :      0.000u      0.000s      0.001w    582 calls
JK: USO2AO                  :      0.000u      0.000s      0.001w    582 calls
JK: JK                      :      0.050u      0.017s      0.044w    582 calls
JK: J                       :      0.000u      0.000s      0.005w    582 calls
JK: J1                      :      0.000u      0.000s      0.002w    582 calls
JK: J2                      :      0.000u      0.000s      0.001w    582 calls
JK: K                       :      0.050u      0.000s      0.034w    582 calls
JK: K1                      :      0.033u      0.000s      0.027w    582 calls
JK: K2                      :      0.017u      0.000s      0.006w    582 calls
JK: AO2USO                  :      0.000u      0.000s      0.000w    582 calls
HF: Form F                  :      0.000u      0.000s      0.001w    582 calls
HF: DIIS                    :      0.033u      0.000s      0.045w    582 calls
DIISManager::add_entry      :      0.000u      0.000s      0.013w    545 calls
DIISManager::extrapolate    :      0.033u      0.000s      0.027w    508 calls
DIISManager::extrapolate: bMatrix setup:      0.017u      0.000s      0.010w    508 calls
DIISManager::extrapolate: bMatrix pseudoinverse:      0.017u      0.000s      0.008w    508 calls
DIISManager::extrapolate: form new data:      0.000u      0.000s      0.007w    508 calls
HF: Form C                  :      0.017u      0.000s      0.015w    582 calls
HF: Form D                  :      0.017u      0.000s      0.001w    582 calls
DFMP2 Singles               :      0.000u      0.000s      0.001w     37 calls
DFMP2 Aia                   :      0.700u      0.000s      0.458w     37 calls
DFMP2 (A|mn)                :      0.050u      0.000s      0.060w     37 calls
DFMP2 (A|mn)C_mi            :      0.000u      0.000s      0.001w     37 calls
DFMP2 (A|mi)C_na            :      0.000u      0.000s      0.001w     37 calls
DFMP2 Aia Write             :      0.000u      0.000s      0.001w     37 calls
DFMP2 Qia                   :      0.517u      0.000s      0.332w     37 calls
DFMP2 Metric                :      0.517u      0.000s      0.293w     37 calls
DFMP2 Aia Read              :      0.000u      0.000s      0.003w     37 calls
DFMP2 (Q|A)(A|ia)           :      0.000u      0.000s      0.001w     37 calls
DFMP2 Qia Write             :      0.000u      0.000s      0.001w     37 calls
DFMP2 Energy                :      0.000u      0.000s      0.068w     37 calls
DFMP2 Qia Read              :      0.000u      0.000s      0.000w     74 calls

-----------------------------------------------------------
JK: (A|mn)                  :      0.300u      0.000s      0.157w     37 calls
JK: (A|Q)^-1/2              :      0.583u      0.000s      0.324w     37 calls
JK: (Q|mn)                  :      0.000u      0.000s      0.003w     37 calls
HF: Form H                  :      0.000u      0.000s      0.145w     37 calls
HF: Form S/X                :      0.000u      0.000s      0.003w     37 calls
HF: Guess                   :      2.367u      0.017s      1.445w     37 calls
| SAD Guess                 :      2.283u      0.017s      1.382w     37 calls
HF: Form G                  :      0.050u      0.017s      0.051w    582 calls
| JK: D                     :      0.000u      0.000s      0.001w    582 calls
| JK: USO2AO                :      0.000u      0.000s      0.001w    582 calls
| JK: JK                    :      0.050u      0.017s      0.044w    582 calls
| | JK: J                   :      0.000u      0.000s      0.005w    582 calls
| | | JK: J1                :      0.000u      0.000s      0.002w    582 calls
| | | JK: J2                :      0.000u      0.000s      0.001w    582 calls
| | JK: K                   :      0.050u      0.000s      0.034w    582 calls
| | | JK: K1                :      0.033u      0.000s      0.027w    582 calls
| | | JK: K2                :      0.017u      0.000s      0.006w    582 calls
| JK: AO2USO                :      0.000u      0.000s      0.000w    582 calls
HF: Form F                  :      0.000u      0.000s      0.001w    582 calls
HF: DIIS                    :      0.033u      0.000s      0.045w    582 calls
| DIISManager::add_entry    :      0.000u      0.000s      0.013w    545 calls
| DIISManager::extrapolate  :      0.033u      0.000s      0.027w    508 calls
| | DIISManager::extrapolate: bMatrix setup:      0.017u      0.000s      0.010w    508 calls
| | DIISManager::extrapolate: bMatrix pseudoinverse:      0.017u      0.000s      0.008w    508 calls
| | DIISManager::extrapolate: form new data:      0.000u      0.000s      0.007w    508 calls
HF: Form C                  :      0.017u      0.000s      0.015w    582 calls
HF: Form D                  :      0.017u      0.000s      0.001w    582 calls
DFMP2 Singles               :      0.000u      0.000s      0.001w     37 calls
DFMP2 Aia                   :      0.700u      0.000s      0.458w     37 calls
| DFMP2 (A|mn)              :      0.050u      0.000s      0.060w     37 calls
| DFMP2 (A|mn)C_mi          :      0.000u      0.000s      0.001w     37 calls
| DFMP2 (A|mi)C_na          :      0.000u      0.000s      0.001w     37 calls
| DFMP2 Aia Write           :      0.000u      0.000s      0.001w     37 calls
DFMP2 Qia                   :      0.517u      0.000s      0.332w     37 calls
| DFMP2 Metric              :      0.517u      0.000s      0.293w     37 calls
| DFMP2 Aia Read            :      0.000u      0.000s      0.003w     37 calls
| DFMP2 (Q|A)(A|ia)         :      0.000u      0.000s      0.001w     37 calls
| DFMP2 Qia Write           :      0.000u      0.000s      0.001w     37 calls
DFMP2 Energy                :      0.000u      0.000s      0.068w     37 calls
| DFMP2 Qia Read            :      0.000u      0.000s      0.000w     74 calls

***********************************************************

Host: adabbott

Timers On : Thu Sep  6 15:26:22 2018
Timers Off: Thu Sep  6 15:26:32 2018

Wall Time:        9.12 seconds

JK: (A|mn)                  :      0.233u      0.000s      0.147w     37 calls
JK: (A|Q)^-1/2              :      0.583u      0.000s      0.326w     37 calls
JK: (Q|mn)                  :      0.000u      0.000s      0.003w     37 calls
HF: Form H                  :      0.017u      0.000s      0.032w     37 calls
HF: Form S/X                :      0.000u      0.000s      0.003w     37 calls
HF: Guess                   :      2.350u      0.033s      1.456w     37 calls
SAD Guess                   :      2.283u      0.017s      1.396w     37 calls
HF: Form G                  :      0.083u      0.033s      0.055w    583 calls
JK: D                       :      0.017u      0.000s      0.001w    583 calls
JK: USO2AO                  :      0.017u      0.000s      0.001w    583 calls
JK: JK                      :      0.050u      0.033s      0.047w    583 calls
JK: J                       :      0.000u      0.000s      0.005w    583 calls
JK: J1                      :      0.000u      0.000s      0.002w    583 calls
JK: J2                      :      0.000u      0.000s      0.001w    583 calls
JK: K                       :      0.050u      0.017s      0.037w    583 calls
JK: K1                      :      0.050u      0.017s      0.029w    583 calls
JK: K2                      :      0.000u      0.000s      0.006w    583 calls
JK: AO2USO                  :      0.000u      0.000s      0.000w    583 calls
HF: Form F                  :      0.000u      0.000s      0.001w    583 calls
HF: DIIS                    :      0.117u      0.000s      0.047w    583 calls
DIISManager::add_entry      :      0.033u      0.000s      0.014w    546 calls
DIISManager::extrapolate    :      0.083u      0.000s      0.028w    509 calls
DIISManager::extrapolate: bMatrix setup:      0.067u      0.000s      0.011w    509 calls
DIISManager::extrapolate: bMatrix pseudoinverse:      0.000u      0.000s      0.009w    509 calls
DIISManager::extrapolate: form new data:      0.017u      0.000s      0.007w    509 calls
HF: Form C                  :      0.000u      0.017s      0.016w    583 calls
HF: Form D                  :      0.017u      0.000s      0.001w    583 calls
DFMP2 Singles               :      0.000u      0.000s      0.001w     37 calls
DFMP2 Aia                   :      0.667u      0.000s      0.454w     37 calls
DFMP2 (A|mn)                :      0.083u      0.000s      0.061w     37 calls
DFMP2 (A|mn)C_mi            :      0.000u      0.000s      0.001w     37 calls
DFMP2 (A|mi)C_na            :      0.017u      0.000s      0.001w     37 calls
DFMP2 Aia Write             :      0.000u      0.000s      0.001w     37 calls
DFMP2 Qia                   :      0.517u      0.000s      0.309w     37 calls
DFMP2 Metric                :      0.467u      0.000s      0.285w     37 calls
DFMP2 Aia Read              :      0.017u      0.000s      0.003w     37 calls
DFMP2 (Q|A)(A|ia)           :      0.000u      0.000s      0.001w     37 calls
DFMP2 Qia Write             :      0.000u      0.000s      0.001w     37 calls
DFMP2 Energy                :      0.000u      0.000s      0.040w     37 calls
DFMP2 Qia Read              :      0.000u      0.000s      0.000w     74 calls

-----------------------------------------------------------
JK: (A|mn)                  :      0.233u      0.000s      0.147w     37 calls
JK: (A|Q)^-1/2              :      0.583u      0.000s      0.326w     37 calls
JK: (Q|mn)                  :      0.000u      0.000s      0.003w     37 calls
HF: Form H                  :      0.017u      0.000s      0.032w     37 calls
HF: Form S/X                :      0.000u      0.000s      0.003w     37 calls
HF: Guess                   :      2.350u      0.033s      1.456w     37 calls
| SAD Guess                 :      2.283u      0.017s      1.396w     37 calls
HF: Form G                  :      0.083u      0.033s      0.055w    583 calls
| JK: D                     :      0.017u      0.000s      0.001w    583 calls
| JK: USO2AO                :      0.017u      0.000s      0.001w    583 calls
| JK: JK                    :      0.050u      0.033s      0.047w    583 calls
| | JK: J                   :      0.000u      0.000s      0.005w    583 calls
| | | JK: J1                :      0.000u      0.000s      0.002w    583 calls
| | | JK: J2                :      0.000u      0.000s      0.001w    583 calls
| | JK: K                   :      0.050u      0.017s      0.037w    583 calls
| | | JK: K1                :      0.050u      0.017s      0.029w    583 calls
| | | JK: K2                :      0.000u      0.000s      0.006w    583 calls
| JK: AO2USO                :      0.000u      0.000s      0.000w    583 calls
HF: Form F                  :      0.000u      0.000s      0.001w    583 calls
HF: DIIS                    :      0.117u      0.000s      0.047w    583 calls
| DIISManager::add_entry    :      0.033u      0.000s      0.014w    546 calls
| DIISManager::extrapolate  :      0.083u      0.000s      0.028w    509 calls
| | DIISManager::extrapolate: bMatrix setup:      0.067u      0.000s      0.011w    509 calls
| | DIISManager::extrapolate: bMatrix pseudoinverse:      0.000u      0.000s      0.009w    509 calls
| | DIISManager::extrapolate: form new data:      0.017u      0.000s      0.007w    509 calls
HF: Form C                  :      0.000u      0.017s      0.016w    583 calls
HF: Form D                  :      0.017u      0.000s      0.001w    583 calls
DFMP2 Singles               :      0.000u      0.000s      0.001w     37 calls
DFMP2 Aia                   :      0.667u      0.000s      0.454w     37 calls
| DFMP2 (A|mn)              :      0.083u      0.000s      0.061w     37 calls
| DFMP2 (A|mn)C_mi          :      0.000u      0.000s      0.001w     37 calls
| DFMP2 (A|mi)C_na          :      0.017u      0.000s      0.001w     37 calls
| DFMP2 Aia Write           :      0.000u      0.000s      0.001w     37 calls
DFMP2 Qia                   :      0.517u      0.000s      0.309w     37 calls
| DFMP2 Metric              :      0.467u      0.000s      0.285w     37 calls
| DFMP2 Aia Read            :      0.017u      0.000s      0.003w     37 calls
| DFMP2 (Q|A)(A|ia)         :      0.000u      0.000s      0.001w     37 calls
| DFMP2 Qia Write           :      0.000u      0.000s      0.001w     37 calls
DFMP2 Energy                :      0.000u      0.000s      0.040w     37 calls
| DFMP2 Qia Read            :      0.000u      0.000s      0.000w     74 calls

***********************************************************

Host: adabbott

Timers On : Thu Sep  6 15:28:17 2018
Timers Off: Thu Sep  6 15:28:26 2018

Wall Time:        9.84 seconds

JK: (A|mn)                  :      0.300u      0.000s      0.147w     37 calls
JK: (A|Q)^-1/2              :      0.550u      0.000s      0.321w     37 calls
JK: (Q|mn)                  :      0.000u      0.000s      0.003w     37 calls
HF: Form H                  :      0.000u      0.017s      0.163w     37 calls
HF: Form S/X                :      0.000u      0.000s      0.003w     37 calls
HF: Guess                   :      2.400u      0.017s      1.453w     37 calls
SAD Guess                   :      2.267u      0.000s      1.392w     37 calls
HF: Form G                  :      0.117u      0.000s      0.053w    591 calls
JK: D                       :      0.000u      0.000s      0.001w    591 calls
JK: USO2AO                  :      0.000u      0.000s      0.001w    591 calls
JK: JK                      :      0.083u      0.000s      0.046w    591 calls
JK: J                       :      0.067u      0.000s      0.005w    591 calls
JK: J1                      :      0.033u      0.000s      0.002w    591 calls
JK: J2                      :      0.017u      0.000s      0.001w    591 calls
JK: K                       :      0.017u      0.000s      0.036w    591 calls
JK: K1                      :      0.017u      0.000s      0.028w    591 calls
JK: K2                      :      0.000u      0.000s      0.006w    591 calls
JK: AO2USO                  :      0.000u      0.000s      0.000w    591 calls
HF: Form F                  :      0.000u      0.000s      0.001w    591 calls
HF: DIIS                    :      0.050u      0.000s      0.048w    591 calls
DIISManager::add_entry      :      0.017u      0.000s      0.014w    554 calls
DIISManager::extrapolate    :      0.017u      0.000s      0.028w    517 calls
DIISManager::extrapolate: bMatrix setup:      0.000u      0.000s      0.011w    517 calls
DIISManager::extrapolate: bMatrix pseudoinverse:      0.000u      0.000s      0.009w    517 calls
DIISManager::extrapolate: form new data:      0.017u      0.000s      0.007w    517 calls
HF: Form C                  :      0.000u      0.017s      0.016w    591 calls
HF: Form D                  :      0.000u      0.000s      0.001w    591 calls
DFMP2 Singles               :      0.000u      0.000s      0.001w     37 calls
DFMP2 Aia                   :      0.700u      0.000s      0.624w     37 calls
DFMP2 (A|mn)                :      0.083u      0.000s      0.064w     37 calls
DFMP2 (A|mn)C_mi            :      0.000u      0.000s      0.001w     37 calls
DFMP2 (A|mi)C_na            :      0.000u      0.000s      0.001w     37 calls
DFMP2 Aia Write             :      0.000u      0.000s      0.001w     37 calls
DFMP2 Qia                   :      0.600u      0.000s      0.378w     37 calls
DFMP2 Metric                :      0.583u      0.000s      0.318w     37 calls
DFMP2 Aia Read              :      0.017u      0.000s      0.003w     37 calls
DFMP2 (Q|A)(A|ia)           :      0.000u      0.000s      0.001w     37 calls
DFMP2 Qia Write             :      0.000u      0.000s      0.001w     37 calls
DFMP2 Energy                :      0.000u      0.000s      0.265w     37 calls
DFMP2 Qia Read              :      0.000u      0.000s      0.000w     74 calls

-----------------------------------------------------------
JK: (A|mn)                  :      0.300u      0.000s      0.147w     37 calls
JK: (A|Q)^-1/2              :      0.550u      0.000s      0.321w     37 calls
JK: (Q|mn)                  :      0.000u      0.000s      0.003w     37 calls
HF: Form H                  :      0.000u      0.017s      0.163w     37 calls
HF: Form S/X                :      0.000u      0.000s      0.003w     37 calls
HF: Guess                   :      2.400u      0.017s      1.453w     37 calls
| SAD Guess                 :      2.267u      0.000s      1.392w     37 calls
HF: Form G                  :      0.117u      0.000s      0.053w    591 calls
| JK: D                     :      0.000u      0.000s      0.001w    591 calls
| JK: USO2AO                :      0.000u      0.000s      0.001w    591 calls
| JK: JK                    :      0.083u      0.000s      0.046w    591 calls
| | JK: J                   :      0.067u      0.000s      0.005w    591 calls
| | | JK: J1                :      0.033u      0.000s      0.002w    591 calls
| | | JK: J2                :      0.017u      0.000s      0.001w    591 calls
| | JK: K                   :      0.017u      0.000s      0.036w    591 calls
| | | JK: K1                :      0.017u      0.000s      0.028w    591 calls
| | | JK: K2                :      0.000u      0.000s      0.006w    591 calls
| JK: AO2USO                :      0.000u      0.000s      0.000w    591 calls
HF: Form F                  :      0.000u      0.000s      0.001w    591 calls
HF: DIIS                    :      0.050u      0.000s      0.048w    591 calls
| DIISManager::add_entry    :      0.017u      0.000s      0.014w    554 calls
| DIISManager::extrapolate  :      0.017u      0.000s      0.028w    517 calls
| | DIISManager::extrapolate: bMatrix setup:      0.000u      0.000s      0.011w    517 calls
| | DIISManager::extrapolate: bMatrix pseudoinverse:      0.000u      0.000s      0.009w    517 calls
| | DIISManager::extrapolate: form new data:      0.017u      0.000s      0.007w    517 calls
HF: Form C                  :      0.000u      0.017s      0.016w    591 calls
HF: Form D                  :      0.000u      0.000s      0.001w    591 calls
DFMP2 Singles               :      0.000u      0.000s      0.001w     37 calls
DFMP2 Aia                   :      0.700u      0.000s      0.624w     37 calls
| DFMP2 (A|mn)              :      0.083u      0.000s      0.064w     37 calls
| DFMP2 (A|mn)C_mi          :      0.000u      0.000s      0.001w     37 calls
| DFMP2 (A|mi)C_na          :      0.000u      0.000s      0.001w     37 calls
| DFMP2 Aia Write           :      0.000u      0.000s      0.001w     37 calls
DFMP2 Qia                   :      0.600u      0.000s      0.378w     37 calls
| DFMP2 Metric              :      0.583u      0.000s      0.318w     37 calls
| DFMP2 Aia Read            :      0.017u      0.000s      0.003w     37 calls
| DFMP2 (Q|A)(A|ia)         :      0.000u      0.000s      0.001w     37 calls
| DFMP2 Qia Write           :      0.000u      0.000s      0.001w     37 calls
DFMP2 Energy                :      0.000u      0.000s      0.265w     37 calls
| DFMP2 Qia Read            :      0.000u      0.000s      0.000w     74 calls

***********************************************************

Host: adabbott

Timers On : Thu Sep  6 15:29:08 2018
Timers Off: Thu Sep  6 15:29:17 2018

Wall Time:        8.94 seconds

JK: (A|mn)                  :      0.217u      0.017s      0.148w     37 calls
JK: (A|Q)^-1/2              :      0.500u      0.000s      0.318w     37 calls
JK: (Q|mn)                  :      0.033u      0.000s      0.003w     37 calls
HF: Form H                  :      0.067u      0.000s      0.028w     37 calls
HF: Form S/X                :      0.000u      0.000s      0.002w     37 calls
HF: Guess                   :      2.283u      0.017s      1.396w     37 calls
SAD Guess                   :      2.167u      0.017s      1.340w     37 calls
HF: Form G                  :      0.067u      0.017s      0.050w    583 calls
JK: D                       :      0.000u      0.000s      0.001w    583 calls
JK: USO2AO                  :      0.000u      0.000s      0.001w    583 calls
JK: JK                      :      0.067u      0.017s      0.043w    583 calls
JK: J                       :      0.000u      0.000s      0.005w    583 calls
JK: J1                      :      0.000u      0.000s      0.002w    583 calls
JK: J2                      :      0.000u      0.000s      0.001w    583 calls
JK: K                       :      0.067u      0.017s      0.033w    583 calls
JK: K1                      :      0.033u      0.017s      0.026w    583 calls
JK: K2                      :      0.017u      0.000s      0.006w    583 calls
JK: AO2USO                  :      0.000u      0.000s      0.000w    583 calls
HF: Form F                  :      0.017u      0.000s      0.001w    583 calls
HF: DIIS                    :      0.050u      0.000s      0.045w    583 calls
DIISManager::add_entry      :      0.000u      0.000s      0.013w    546 calls
DIISManager::extrapolate    :      0.050u      0.000s      0.026w    509 calls
DIISManager::extrapolate: bMatrix setup:      0.000u      0.000s      0.010w    509 calls
DIISManager::extrapolate: bMatrix pseudoinverse:      0.000u      0.000s      0.008w    509 calls
DIISManager::extrapolate: form new data:      0.050u      0.000s      0.006w    509 calls
HF: Form C                  :      0.033u      0.000s      0.015w    583 calls
HF: Form D                  :      0.000u      0.000s      0.001w    583 calls
DFMP2 Singles               :      0.000u      0.000s      0.001w     37 calls
DFMP2 Aia                   :      0.667u      0.017s      0.462w     37 calls
DFMP2 (A|mn)                :      0.067u      0.017s      0.058w     37 calls
DFMP2 (A|mn)C_mi            :      0.000u      0.000s      0.001w     37 calls
DFMP2 (A|mi)C_na            :      0.000u      0.000s      0.001w     37 calls
DFMP2 Aia Write             :      0.000u      0.000s      0.001w     37 calls
DFMP2 Qia                   :      0.583u      0.000s      0.392w     37 calls
DFMP2 Metric                :      0.567u      0.000s      0.304w     37 calls
DFMP2 Aia Read              :      0.000u      0.000s      0.003w     37 calls
DFMP2 (Q|A)(A|ia)           :      0.000u      0.000s      0.001w     37 calls
DFMP2 Qia Write             :      0.000u      0.000s      0.001w     37 calls
DFMP2 Energy                :      0.000u      0.000s      0.084w     37 calls
DFMP2 Qia Read              :      0.000u      0.000s      0.000w     74 calls

-----------------------------------------------------------
JK: (A|mn)                  :      0.217u      0.017s      0.148w     37 calls
JK: (A|Q)^-1/2              :      0.500u      0.000s      0.318w     37 calls
JK: (Q|mn)                  :      0.033u      0.000s      0.003w     37 calls
HF: Form H                  :      0.067u      0.000s      0.028w     37 calls
HF: Form S/X                :      0.000u      0.000s      0.002w     37 calls
HF: Guess                   :      2.283u      0.017s      1.396w     37 calls
| SAD Guess                 :      2.167u      0.017s      1.340w     37 calls
HF: Form G                  :      0.067u      0.017s      0.050w    583 calls
| JK: D                     :      0.000u      0.000s      0.001w    583 calls
| JK: USO2AO                :      0.000u      0.000s      0.001w    583 calls
| JK: JK                    :      0.067u      0.017s      0.043w    583 calls
| | JK: J                   :      0.000u      0.000s      0.005w    583 calls
| | | JK: J1                :      0.000u      0.000s      0.002w    583 calls
| | | JK: J2                :      0.000u      0.000s      0.001w    583 calls
| | JK: K                   :      0.067u      0.017s      0.033w    583 calls
| | | JK: K1                :      0.033u      0.017s      0.026w    583 calls
| | | JK: K2                :      0.017u      0.000s      0.006w    583 calls
| JK: AO2USO                :      0.000u      0.000s      0.000w    583 calls
HF: Form F                  :      0.017u      0.000s      0.001w    583 calls
HF: DIIS                    :      0.050u      0.000s      0.045w    583 calls
| DIISManager::add_entry    :      0.000u      0.000s      0.013w    546 calls
| DIISManager::extrapolate  :      0.050u      0.000s      0.026w    509 calls
| | DIISManager::extrapolate: bMatrix setup:      0.000u      0.000s      0.010w    509 calls
| | DIISManager::extrapolate: bMatrix pseudoinverse:      0.000u      0.000s      0.008w    509 calls
| | DIISManager::extrapolate: form new data:      0.050u      0.000s      0.006w    509 calls
HF: Form C                  :      0.033u      0.000s      0.015w    583 calls
HF: Form D                  :      0.000u      0.000s      0.001w    583 calls
DFMP2 Singles               :      0.000u      0.000s      0.001w     37 calls
DFMP2 Aia                   :      0.667u      0.017s      0.462w     37 calls
| DFMP2 (A|mn)              :      0.067u      0.017s      0.058w     37 calls
| DFMP2 (A|mn)C_mi          :      0.000u      0.000s      0.001w     37 calls
| DFMP2 (A|mi)C_na          :      0.000u      0.000s      0.001w     37 calls
| DFMP2 Aia Write           :      0.000u      0.000s      0.001w     37 calls
DFMP2 Qia                   :      0.583u      0.000s      0.392w     37 calls
| DFMP2 Metric              :      0.567u      0.000s      0.304w     37 calls
| DFMP2 Aia Read            :      0.000u      0.000s      0.003w     37 calls
| DFMP2 (Q|A)(A|ia)         :      0.000u      0.000s      0.001w     37 calls
| DFMP2 Qia Write           :      0.000u      0.000s      0.001w     37 calls
DFMP2 Energy                :      0.000u      0.000s      0.084w     37 calls
| DFMP2 Qia Read            :      0.000u      0.000s      0.000w     74 calls

***********************************************************

Host: adabbott

Timers On : Fri Sep  7 14:44:56 2018
Timers Off: Fri Sep  7 14:45:22 2018

Wall Time:       26.15 seconds

JK: (A|mn)                  :      0.283u      0.000s      0.145w     37 calls
JK: (A|Q)^-1/2              :      0.500u      0.000s      0.441w     37 calls
JK: (Q|mn)                  :      0.000u      0.000s      0.003w     37 calls
HF: Form H                  :      0.017u      0.000s      0.087w     37 calls
HF: Form S/X                :      0.000u      0.000s      0.002w     37 calls
HF: Guess                   :      2.317u      0.017s      1.411w     37 calls
SAD Guess                   :      2.167u      0.000s      1.349w     37 calls
HF: Form G                  :      0.067u      0.050s      0.048w    583 calls
JK: D                       :      0.000u      0.000s      0.001w    583 calls
JK: USO2AO                  :      0.000u      0.000s      0.001w    583 calls
JK: JK                      :      0.050u      0.050s      0.041w    583 calls
JK: J                       :      0.000u      0.017s      0.004w    583 calls
JK: J1                      :      0.000u      0.000s      0.002w    583 calls
JK: J2                      :      0.000u      0.017s      0.001w    583 calls
JK: K                       :      0.033u      0.033s      0.032w    583 calls
JK: K1                      :      0.017u      0.017s      0.025w    583 calls
JK: K2                      :      0.017u      0.017s      0.005w    583 calls
JK: AO2USO                  :      0.000u      0.000s      0.000w    583 calls
HF: Form F                  :      0.000u      0.000s      0.001w    583 calls
HF: DIIS                    :      0.067u      0.017s      0.041w    583 calls
DIISManager::add_entry      :      0.033u      0.000s      0.011w    546 calls
DIISManager::extrapolate    :      0.017u      0.017s      0.025w    509 calls
DIISManager::extrapolate: bMatrix setup:      0.000u      0.017s      0.009w    509 calls
DIISManager::extrapolate: bMatrix pseudoinverse:      0.000u      0.000s      0.008w    509 calls
DIISManager::extrapolate: form new data:      0.000u      0.000s      0.006w    509 calls
HF: Form C                  :      0.033u      0.000s      0.014w    583 calls
HF: Form D                  :      0.000u      0.000s      0.001w    583 calls
DFMP2 Singles               :      0.000u      0.000s      0.001w     37 calls
DFMP2 Aia                   :      0.700u      0.017s      0.411w     37 calls
DFMP2 (A|mn)                :      0.117u      0.000s      0.056w     37 calls
DFMP2 (A|mn)C_mi            :      0.000u      0.000s      0.000w     37 calls
DFMP2 (A|mi)C_na            :      0.000u      0.000s      0.001w     37 calls
DFMP2 Aia Write             :      0.000u      0.000s      0.001w     37 calls
DFMP2 Qia                   :      0.400u      0.000s      0.284w     37 calls
DFMP2 Metric                :      0.400u      0.000s      0.275w     37 calls
DFMP2 Aia Read              :      0.000u      0.000s      0.003w     37 calls
DFMP2 (Q|A)(A|ia)           :      0.000u      0.000s      0.001w     37 calls
DFMP2 Qia Write             :      0.000u      0.000s      0.001w     37 calls
DFMP2 Energy                :      0.000u      0.000s      0.009w     37 calls
DFMP2 Qia Read              :      0.000u      0.000s      0.000w     74 calls

-----------------------------------------------------------
JK: (A|mn)                  :      0.283u      0.000s      0.145w     37 calls
JK: (A|Q)^-1/2              :      0.500u      0.000s      0.441w     37 calls
JK: (Q|mn)                  :      0.000u      0.000s      0.003w     37 calls
HF: Form H                  :      0.017u      0.000s      0.087w     37 calls
HF: Form S/X                :      0.000u      0.000s      0.002w     37 calls
HF: Guess                   :      2.317u      0.017s      1.411w     37 calls
| SAD Guess                 :      2.167u      0.000s      1.349w     37 calls
HF: Form G                  :      0.067u      0.050s      0.048w    583 calls
| JK: D                     :      0.000u      0.000s      0.001w    583 calls
| JK: USO2AO                :      0.000u      0.000s      0.001w    583 calls
| JK: JK                    :      0.050u      0.050s      0.041w    583 calls
| | JK: J                   :      0.000u      0.017s      0.004w    583 calls
| | | JK: J1                :      0.000u      0.000s      0.002w    583 calls
| | | JK: J2                :      0.000u      0.017s      0.001w    583 calls
| | JK: K                   :      0.033u      0.033s      0.032w    583 calls
| | | JK: K1                :      0.017u      0.017s      0.025w    583 calls
| | | JK: K2                :      0.017u      0.017s      0.005w    583 calls
| JK: AO2USO                :      0.000u      0.000s      0.000w    583 calls
HF: Form F                  :      0.000u      0.000s      0.001w    583 calls
HF: DIIS                    :      0.067u      0.017s      0.041w    583 calls
| DIISManager::add_entry    :      0.033u      0.000s      0.011w    546 calls
| DIISManager::extrapolate  :      0.017u      0.017s      0.025w    509 calls
| | DIISManager::extrapolate: bMatrix setup:      0.000u      0.017s      0.009w    509 calls
| | DIISManager::extrapolate: bMatrix pseudoinverse:      0.000u      0.000s      0.008w    509 calls
| | DIISManager::extrapolate: form new data:      0.000u      0.000s      0.006w    509 calls
HF: Form C                  :      0.033u      0.000s      0.014w    583 calls
HF: Form D                  :      0.000u      0.000s      0.001w    583 calls
DFMP2 Singles               :      0.000u      0.000s      0.001w     37 calls
DFMP2 Aia                   :      0.700u      0.017s      0.411w     37 calls
| DFMP2 (A|mn)              :      0.117u      0.000s      0.056w     37 calls
| DFMP2 (A|mn)C_mi          :      0.000u      0.000s      0.000w     37 calls
| DFMP2 (A|mi)C_na          :      0.000u      0.000s      0.001w     37 calls
| DFMP2 Aia Write           :      0.000u      0.000s      0.001w     37 calls
DFMP2 Qia                   :      0.400u      0.000s      0.284w     37 calls
| DFMP2 Metric              :      0.400u      0.000s      0.275w     37 calls
| DFMP2 Aia Read            :      0.000u      0.000s      0.003w     37 calls
| DFMP2 (Q|A)(A|ia)         :      0.000u      0.000s      0.001w     37 calls
| DFMP2 Qia Write           :      0.000u      0.000s      0.001w     37 calls
DFMP2 Energy                :      0.000u      0.000s      0.009w     37 calls
| DFMP2 Qia Read            :      0.000u      0.000s      0.000w     74 calls

***********************************************************

Host: adabbott

Timers On : Fri Sep  7 14:46:49 2018
Timers Off: Fri Sep  7 14:46:57 2018

Wall Time:        7.83 seconds

JK: (A|mn)                  :      0.150u      0.000s      0.137w     37 calls
JK: (A|Q)^-1/2              :      0.500u      0.000s      0.299w     37 calls
JK: (Q|mn)                  :      0.000u      0.000s      0.003w     37 calls
HF: Form H                  :      0.017u      0.000s      0.023w     37 calls
HF: Form S/X                :      0.000u      0.000s      0.002w     37 calls
HF: Guess                   :      2.250u      0.033s      1.338w     37 calls
SAD Guess                   :      2.167u      0.000s      1.284w     37 calls
HF: Form G                  :      0.017u      0.000s      0.047w    583 calls
JK: D                       :      0.000u      0.000s      0.001w    583 calls
JK: USO2AO                  :      0.000u      0.000s      0.001w    583 calls
JK: JK                      :      0.017u      0.000s      0.041w    583 calls
JK: J                       :      0.000u      0.000s      0.005w    583 calls
JK: J1                      :      0.000u      0.000s      0.002w    583 calls
JK: J2                      :      0.000u      0.000s      0.001w    583 calls
JK: K                       :      0.000u      0.000s      0.032w    583 calls
JK: K1                      :      0.000u      0.000s      0.025w    583 calls
JK: K2                      :      0.000u      0.000s      0.006w    583 calls
JK: AO2USO                  :      0.000u      0.000s      0.000w    583 calls
HF: Form F                  :      0.000u      0.000s      0.001w    583 calls
HF: DIIS                    :      0.083u      0.000s      0.041w    583 calls
DIISManager::add_entry      :      0.017u      0.000s      0.011w    546 calls
DIISManager::extrapolate    :      0.050u      0.000s      0.025w    509 calls
DIISManager::extrapolate: bMatrix setup:      0.033u      0.000s      0.010w    509 calls
DIISManager::extrapolate: bMatrix pseudoinverse:      0.017u      0.000s      0.008w    509 calls
DIISManager::extrapolate: form new data:      0.000u      0.000s      0.006w    509 calls
HF: Form C                  :      0.033u      0.000s      0.014w    583 calls
HF: Form D                  :      0.000u      0.000s      0.001w    583 calls
DFMP2 Singles               :      0.033u      0.000s      0.001w     37 calls
DFMP2 Aia                   :      0.633u      0.000s      0.400w     37 calls
DFMP2 (A|mn)                :      0.100u      0.000s      0.057w     37 calls
DFMP2 (A|mn)C_mi            :      0.000u      0.000s      0.000w     37 calls
DFMP2 (A|mi)C_na            :      0.000u      0.000s      0.001w     37 calls
DFMP2 Aia Write             :      0.000u      0.000s      0.001w     37 calls
DFMP2 Qia                   :      0.400u      0.000s      0.274w     37 calls
DFMP2 Metric                :      0.400u      0.000s      0.264w     37 calls
DFMP2 Aia Read              :      0.000u      0.000s      0.003w     37 calls
DFMP2 (Q|A)(A|ia)           :      0.000u      0.000s      0.001w     37 calls
DFMP2 Qia Write             :      0.000u      0.000s      0.001w     37 calls
DFMP2 Energy                :      0.050u      0.000s      0.009w     37 calls
DFMP2 Qia Read              :      0.000u      0.000s      0.000w     74 calls

-----------------------------------------------------------
JK: (A|mn)                  :      0.150u      0.000s      0.137w     37 calls
JK: (A|Q)^-1/2              :      0.500u      0.000s      0.299w     37 calls
JK: (Q|mn)                  :      0.000u      0.000s      0.003w     37 calls
HF: Form H                  :      0.017u      0.000s      0.023w     37 calls
HF: Form S/X                :      0.000u      0.000s      0.002w     37 calls
HF: Guess                   :      2.250u      0.033s      1.338w     37 calls
| SAD Guess                 :      2.167u      0.000s      1.284w     37 calls
HF: Form G                  :      0.017u      0.000s      0.047w    583 calls
| JK: D                     :      0.000u      0.000s      0.001w    583 calls
| JK: USO2AO                :      0.000u      0.000s      0.001w    583 calls
| JK: JK                    :      0.017u      0.000s      0.041w    583 calls
| | JK: J                   :      0.000u      0.000s      0.005w    583 calls
| | | JK: J1                :      0.000u      0.000s      0.002w    583 calls
| | | JK: J2                :      0.000u      0.000s      0.001w    583 calls
| | JK: K                   :      0.000u      0.000s      0.032w    583 calls
| | | JK: K1                :      0.000u      0.000s      0.025w    583 calls
| | | JK: K2                :      0.000u      0.000s      0.006w    583 calls
| JK: AO2USO                :      0.000u      0.000s      0.000w    583 calls
HF: Form F                  :      0.000u      0.000s      0.001w    583 calls
HF: DIIS                    :      0.083u      0.000s      0.041w    583 calls
| DIISManager::add_entry    :      0.017u      0.000s      0.011w    546 calls
| DIISManager::extrapolate  :      0.050u      0.000s      0.025w    509 calls
| | DIISManager::extrapolate: bMatrix setup:      0.033u      0.000s      0.010w    509 calls
| | DIISManager::extrapolate: bMatrix pseudoinverse:      0.017u      0.000s      0.008w    509 calls
| | DIISManager::extrapolate: form new data:      0.000u      0.000s      0.006w    509 calls
HF: Form C                  :      0.033u      0.000s      0.014w    583 calls
HF: Form D                  :      0.000u      0.000s      0.001w    583 calls
DFMP2 Singles               :      0.033u      0.000s      0.001w     37 calls
DFMP2 Aia                   :      0.633u      0.000s      0.400w     37 calls
| DFMP2 (A|mn)              :      0.100u      0.000s      0.057w     37 calls
| DFMP2 (A|mn)C_mi          :      0.000u      0.000s      0.000w     37 calls
| DFMP2 (A|mi)C_na          :      0.000u      0.000s      0.001w     37 calls
| DFMP2 Aia Write           :      0.000u      0.000s      0.001w     37 calls
DFMP2 Qia                   :      0.400u      0.000s      0.274w     37 calls
| DFMP2 Metric              :      0.400u      0.000s      0.264w     37 calls
| DFMP2 Aia Read            :      0.000u      0.000s      0.003w     37 calls
| DFMP2 (Q|A)(A|ia)         :      0.000u      0.000s      0.001w     37 calls
| DFMP2 Qia Write           :      0.000u      0.000s      0.001w     37 calls
DFMP2 Energy                :      0.050u      0.000s      0.009w     37 calls
| DFMP2 Qia Read            :      0.000u      0.000s      0.000w     74 calls

***********************************************************

Host: adabbott

Timers On : Mon Sep 10 16:54:57 2018
Timers Off: Mon Sep 10 16:55:04 2018

Wall Time:        7.97 seconds

JK: (A|mn)                  :      0.350u      0.000s      0.137w     37 calls
JK: (A|Q)^-1/2              :      0.367u      0.000s      0.300w     37 calls
JK: (Q|mn)                  :      0.000u      0.000s      0.003w     37 calls
HF: Form H                  :      0.067u      0.000s      0.024w     37 calls
HF: Form S/X                :      0.000u      0.000s      0.002w     37 calls
HF: Guess                   :      2.200u      0.017s      1.326w     37 calls
SAD Guess                   :      2.067u      0.000s      1.272w     37 calls
HF: Form G                  :      0.033u      0.000s      0.047w    583 calls
JK: D                       :      0.000u      0.000s      0.001w    583 calls
JK: USO2AO                  :      0.000u      0.000s      0.001w    583 calls
JK: JK                      :      0.033u      0.000s      0.041w    583 calls
JK: J                       :      0.000u      0.000s      0.005w    583 calls
JK: J1                      :      0.000u      0.000s      0.002w    583 calls
JK: J2                      :      0.000u      0.000s      0.001w    583 calls
JK: K                       :      0.017u      0.000s      0.032w    583 calls
JK: K1                      :      0.017u      0.000s      0.025w    583 calls
JK: K2                      :      0.000u      0.000s      0.006w    583 calls
JK: AO2USO                  :      0.000u      0.000s      0.000w    583 calls
HF: Form F                  :      0.000u      0.000s      0.001w    583 calls
HF: DIIS                    :      0.017u      0.000s      0.041w    583 calls
DIISManager::add_entry      :      0.000u      0.000s      0.011w    546 calls
DIISManager::extrapolate    :      0.017u      0.000s      0.025w    509 calls
DIISManager::extrapolate: bMatrix setup:      0.017u      0.000s      0.010w    509 calls
DIISManager::extrapolate: bMatrix pseudoinverse:      0.000u      0.000s      0.007w    509 calls
DIISManager::extrapolate: form new data:      0.000u      0.000s      0.006w    509 calls
HF: Form C                  :      0.033u      0.000s      0.014w    583 calls
HF: Form D                  :      0.000u      0.000s      0.001w    583 calls
DFMP2 Singles               :      0.000u      0.000s      0.001w     37 calls
DFMP2 Aia                   :      0.683u      0.000s      0.396w     37 calls
DFMP2 (A|mn)                :      0.117u      0.000s      0.056w     37 calls
DFMP2 (A|mn)C_mi            :      0.000u      0.000s      0.000w     37 calls
DFMP2 (A|mi)C_na            :      0.000u      0.000s      0.001w     37 calls
DFMP2 Aia Write             :      0.000u      0.000s      0.001w     37 calls
DFMP2 Qia                   :      0.367u      0.017s      0.271w     37 calls
DFMP2 Metric                :      0.333u      0.017s      0.261w     37 calls
DFMP2 Aia Read              :      0.000u      0.000s      0.003w     37 calls
DFMP2 (Q|A)(A|ia)           :      0.000u      0.000s      0.001w     37 calls
DFMP2 Qia Write             :      0.000u      0.000s      0.001w     37 calls
DFMP2 Energy                :      0.000u      0.000s      0.009w     37 calls
DFMP2 Qia Read              :      0.000u      0.000s      0.000w     74 calls

-----------------------------------------------------------
JK: (A|mn)                  :      0.350u      0.000s      0.137w     37 calls
JK: (A|Q)^-1/2              :      0.367u      0.000s      0.300w     37 calls
JK: (Q|mn)                  :      0.000u      0.000s      0.003w     37 calls
HF: Form H                  :      0.067u      0.000s      0.024w     37 calls
HF: Form S/X                :      0.000u      0.000s      0.002w     37 calls
HF: Guess                   :      2.200u      0.017s      1.326w     37 calls
| SAD Guess                 :      2.067u      0.000s      1.272w     37 calls
HF: Form G                  :      0.033u      0.000s      0.047w    583 calls
| JK: D                     :      0.000u      0.000s      0.001w    583 calls
| JK: USO2AO                :      0.000u      0.000s      0.001w    583 calls
| JK: JK                    :      0.033u      0.000s      0.041w    583 calls
| | JK: J                   :      0.000u      0.000s      0.005w    583 calls
| | | JK: J1                :      0.000u      0.000s      0.002w    583 calls
| | | JK: J2                :      0.000u      0.000s      0.001w    583 calls
| | JK: K                   :      0.017u      0.000s      0.032w    583 calls
| | | JK: K1                :      0.017u      0.000s      0.025w    583 calls
| | | JK: K2                :      0.000u      0.000s      0.006w    583 calls
| JK: AO2USO                :      0.000u      0.000s      0.000w    583 calls
HF: Form F                  :      0.000u      0.000s      0.001w    583 calls
HF: DIIS                    :      0.017u      0.000s      0.041w    583 calls
| DIISManager::add_entry    :      0.000u      0.000s      0.011w    546 calls
| DIISManager::extrapolate  :      0.017u      0.000s      0.025w    509 calls
| | DIISManager::extrapolate: bMatrix setup:      0.017u      0.000s      0.010w    509 calls
| | DIISManager::extrapolate: bMatrix pseudoinverse:      0.000u      0.000s      0.007w    509 calls
| | DIISManager::extrapolate: form new data:      0.000u      0.000s      0.006w    509 calls
HF: Form C                  :      0.033u      0.000s      0.014w    583 calls
HF: Form D                  :      0.000u      0.000s      0.001w    583 calls
DFMP2 Singles               :      0.000u      0.000s      0.001w     37 calls
DFMP2 Aia                   :      0.683u      0.000s      0.396w     37 calls
| DFMP2 (A|mn)              :      0.117u      0.000s      0.056w     37 calls
| DFMP2 (A|mn)C_mi          :      0.000u      0.000s      0.000w     37 calls
| DFMP2 (A|mi)C_na          :      0.000u      0.000s      0.001w     37 calls
| DFMP2 Aia Write           :      0.000u      0.000s      0.001w     37 calls
DFMP2 Qia                   :      0.367u      0.017s      0.271w     37 calls
| DFMP2 Metric              :      0.333u      0.017s      0.261w     37 calls
| DFMP2 Aia Read            :      0.000u      0.000s      0.003w     37 calls
| DFMP2 (Q|A)(A|ia)         :      0.000u      0.000s      0.001w     37 calls
| DFMP2 Qia Write           :      0.000u      0.000s      0.001w     37 calls
DFMP2 Energy                :      0.000u      0.000s      0.009w     37 calls
| DFMP2 Qia Read            :      0.000u      0.000s      0.000w     74 calls

***********************************************************

Host: adabbott

Timers On : Mon Sep 10 16:55:43 2018
Timers Off: Mon Sep 10 16:55:51 2018

Wall Time:        7.84 seconds

JK: (A|mn)                  :      0.183u      0.000s      0.136w     37 calls
JK: (A|Q)^-1/2              :      0.533u      0.000s      0.297w     37 calls
JK: (Q|mn)                  :      0.000u      0.000s      0.003w     37 calls
HF: Form H                  :      0.000u      0.000s      0.026w     37 calls
HF: Form S/X                :      0.000u      0.000s      0.002w     37 calls
HF: Guess                   :      2.133u      0.000s      1.320w     37 calls
SAD Guess                   :      2.067u      0.000s      1.267w     37 calls
HF: Form G                  :      0.150u      0.000s      0.047w    583 calls
JK: D                       :      0.000u      0.000s      0.001w    583 calls
JK: USO2AO                  :      0.017u      0.000s      0.001w    583 calls
JK: JK                      :      0.117u      0.000s      0.041w    583 calls
JK: J                       :      0.000u      0.000s      0.004w    583 calls
JK: J1                      :      0.000u      0.000s      0.002w    583 calls
JK: J2                      :      0.000u      0.000s      0.001w    583 calls
JK: K                       :      0.083u      0.000s      0.032w    583 calls
JK: K1                      :      0.083u      0.000s      0.025w    583 calls
JK: K2                      :      0.000u      0.000s      0.006w    583 calls
JK: AO2USO                  :      0.000u      0.000s      0.000w    583 calls
HF: Form F                  :      0.000u      0.000s      0.001w    583 calls
HF: DIIS                    :      0.067u      0.000s      0.041w    583 calls
DIISManager::add_entry      :      0.000u      0.000s      0.011w    546 calls
DIISManager::extrapolate    :      0.050u      0.000s      0.025w    509 calls
DIISManager::extrapolate: bMatrix setup:      0.000u      0.000s      0.010w    509 calls
DIISManager::extrapolate: bMatrix pseudoinverse:      0.017u      0.000s      0.008w    509 calls
DIISManager::extrapolate: form new data:      0.017u      0.000s      0.006w    509 calls
HF: Form C                  :      0.017u      0.000s      0.014w    583 calls
HF: Form D                  :      0.000u      0.000s      0.001w    583 calls
DFMP2 Singles               :      0.017u      0.000s      0.001w     37 calls
DFMP2 Aia                   :      0.650u      0.017s      0.410w     37 calls
DFMP2 (A|mn)                :      0.067u      0.017s      0.056w     37 calls
DFMP2 (A|mn)C_mi            :      0.000u      0.000s      0.000w     37 calls
DFMP2 (A|mi)C_na            :      0.000u      0.000s      0.001w     37 calls
DFMP2 Aia Write             :      0.000u      0.000s      0.001w     37 calls
DFMP2 Qia                   :      0.450u      0.017s      0.273w     37 calls
DFMP2 Metric                :      0.400u      0.017s      0.261w     37 calls
DFMP2 Aia Read              :      0.000u      0.000s      0.003w     37 calls
DFMP2 (Q|A)(A|ia)           :      0.000u      0.000s      0.001w     37 calls
DFMP2 Qia Write             :      0.033u      0.000s      0.001w     37 calls
DFMP2 Energy                :      0.000u      0.000s      0.013w     37 calls
DFMP2 Qia Read              :      0.000u      0.000s      0.000w     74 calls

-----------------------------------------------------------
JK: (A|mn)                  :      0.183u      0.000s      0.136w     37 calls
JK: (A|Q)^-1/2              :      0.533u      0.000s      0.297w     37 calls
JK: (Q|mn)                  :      0.000u      0.000s      0.003w     37 calls
HF: Form H                  :      0.000u      0.000s      0.026w     37 calls
HF: Form S/X                :      0.000u      0.000s      0.002w     37 calls
HF: Guess                   :      2.133u      0.000s      1.320w     37 calls
| SAD Guess                 :      2.067u      0.000s      1.267w     37 calls
HF: Form G                  :      0.150u      0.000s      0.047w    583 calls
| JK: D                     :      0.000u      0.000s      0.001w    583 calls
| JK: USO2AO                :      0.017u      0.000s      0.001w    583 calls
| JK: JK                    :      0.117u      0.000s      0.041w    583 calls
| | JK: J                   :      0.000u      0.000s      0.004w    583 calls
| | | JK: J1                :      0.000u      0.000s      0.002w    583 calls
| | | JK: J2                :      0.000u      0.000s      0.001w    583 calls
| | JK: K                   :      0.083u      0.000s      0.032w    583 calls
| | | JK: K1                :      0.083u      0.000s      0.025w    583 calls
| | | JK: K2                :      0.000u      0.000s      0.006w    583 calls
| JK: AO2USO                :      0.000u      0.000s      0.000w    583 calls
HF: Form F                  :      0.000u      0.000s      0.001w    583 calls
HF: DIIS                    :      0.067u      0.000s      0.041w    583 calls
| DIISManager::add_entry    :      0.000u      0.000s      0.011w    546 calls
| DIISManager::extrapolate  :      0.050u      0.000s      0.025w    509 calls
| | DIISManager::extrapolate: bMatrix setup:      0.000u      0.000s      0.010w    509 calls
| | DIISManager::extrapolate: bMatrix pseudoinverse:      0.017u      0.000s      0.008w    509 calls
| | DIISManager::extrapolate: form new data:      0.017u      0.000s      0.006w    509 calls
HF: Form C                  :      0.017u      0.000s      0.014w    583 calls
HF: Form D                  :      0.000u      0.000s      0.001w    583 calls
DFMP2 Singles               :      0.017u      0.000s      0.001w     37 calls
DFMP2 Aia                   :      0.650u      0.017s      0.410w     37 calls
| DFMP2 (A|mn)              :      0.067u      0.017s      0.056w     37 calls
| DFMP2 (A|mn)C_mi          :      0.000u      0.000s      0.000w     37 calls
| DFMP2 (A|mi)C_na          :      0.000u      0.000s      0.001w     37 calls
| DFMP2 Aia Write           :      0.000u      0.000s      0.001w     37 calls
DFMP2 Qia                   :      0.450u      0.017s      0.273w     37 calls
| DFMP2 Metric              :      0.400u      0.017s      0.261w     37 calls
| DFMP2 Aia Read            :      0.000u      0.000s      0.003w     37 calls
| DFMP2 (Q|A)(A|ia)         :      0.000u      0.000s      0.001w     37 calls
| DFMP2 Qia Write           :      0.033u      0.000s      0.001w     37 calls
DFMP2 Energy                :      0.000u      0.000s      0.013w     37 calls
| DFMP2 Qia Read            :      0.000u      0.000s      0.000w     74 calls

***********************************************************

Host: adabbott

Timers On : Mon Sep 10 16:57:33 2018
Timers Off: Mon Sep 10 16:57:41 2018

Wall Time:        7.79 seconds

JK: (A|mn)                  :      0.217u      0.000s      0.135w     37 calls
JK: (A|Q)^-1/2              :      0.533u      0.000s      0.298w     37 calls
JK: (Q|mn)                  :      0.017u      0.000s      0.003w     37 calls
HF: Form H                  :      0.000u      0.000s      0.025w     37 calls
HF: Form S/X                :      0.000u      0.000s      0.002w     37 calls
HF: Guess                   :      2.183u      0.067s      1.322w     37 calls
SAD Guess                   :      2.133u      0.033s      1.268w     37 calls
HF: Form G                  :      0.067u      0.017s      0.047w    583 calls
JK: D                       :      0.000u      0.000s      0.001w    583 calls
JK: USO2AO                  :      0.000u      0.000s      0.001w    583 calls
JK: JK                      :      0.067u      0.017s      0.041w    583 calls
JK: J                       :      0.033u      0.000s      0.004w    583 calls
JK: J1                      :      0.017u      0.000s      0.002w    583 calls
JK: J2                      :      0.000u      0.000s      0.001w    583 calls
JK: K                       :      0.017u      0.017s      0.032w    583 calls
JK: K1                      :      0.017u      0.017s      0.025w    583 calls
JK: K2                      :      0.000u      0.000s      0.006w    583 calls
JK: AO2USO                  :      0.000u      0.000s      0.000w    583 calls
HF: Form F                  :      0.000u      0.000s      0.001w    583 calls
HF: DIIS                    :      0.033u      0.033s      0.041w    583 calls
DIISManager::add_entry      :      0.000u      0.000s      0.011w    546 calls
DIISManager::extrapolate    :      0.033u      0.033s      0.025w    509 calls
DIISManager::extrapolate: bMatrix setup:      0.000u      0.017s      0.010w    509 calls
DIISManager::extrapolate: bMatrix pseudoinverse:      0.017u      0.000s      0.008w    509 calls
DIISManager::extrapolate: form new data:      0.017u      0.017s      0.006w    509 calls
HF: Form C                  :      0.033u      0.000s      0.014w    583 calls
HF: Form D                  :      0.000u      0.017s      0.001w    583 calls
DFMP2 Singles               :      0.000u      0.000s      0.001w     37 calls
DFMP2 Aia                   :      0.650u      0.017s      0.396w     37 calls
DFMP2 (A|mn)                :      0.133u      0.000s      0.057w     37 calls
DFMP2 (A|mn)C_mi            :      0.000u      0.000s      0.000w     37 calls
DFMP2 (A|mi)C_na            :      0.000u      0.000s      0.001w     37 calls
DFMP2 Aia Write             :      0.000u      0.000s      0.001w     37 calls
DFMP2 Qia                   :      0.417u      0.000s      0.270w     37 calls
DFMP2 Metric                :      0.417u      0.000s      0.261w     37 calls
DFMP2 Aia Read              :      0.000u      0.000s      0.003w     37 calls
DFMP2 (Q|A)(A|ia)           :      0.000u      0.000s      0.001w     37 calls
DFMP2 Qia Write             :      0.000u      0.000s      0.001w     37 calls
DFMP2 Energy                :      0.017u      0.017s      0.010w     37 calls
DFMP2 Qia Read              :      0.000u      0.000s      0.000w     74 calls

-----------------------------------------------------------
JK: (A|mn)                  :      0.217u      0.000s      0.135w     37 calls
JK: (A|Q)^-1/2              :      0.533u      0.000s      0.298w     37 calls
JK: (Q|mn)                  :      0.017u      0.000s      0.003w     37 calls
HF: Form H                  :      0.000u      0.000s      0.025w     37 calls
HF: Form S/X                :      0.000u      0.000s      0.002w     37 calls
HF: Guess                   :      2.183u      0.067s      1.322w     37 calls
| SAD Guess                 :      2.133u      0.033s      1.268w     37 calls
HF: Form G                  :      0.067u      0.017s      0.047w    583 calls
| JK: D                     :      0.000u      0.000s      0.001w    583 calls
| JK: USO2AO                :      0.000u      0.000s      0.001w    583 calls
| JK: JK                    :      0.067u      0.017s      0.041w    583 calls
| | JK: J                   :      0.033u      0.000s      0.004w    583 calls
| | | JK: J1                :      0.017u      0.000s      0.002w    583 calls
| | | JK: J2                :      0.000u      0.000s      0.001w    583 calls
| | JK: K                   :      0.017u      0.017s      0.032w    583 calls
| | | JK: K1                :      0.017u      0.017s      0.025w    583 calls
| | | JK: K2                :      0.000u      0.000s      0.006w    583 calls
| JK: AO2USO                :      0.000u      0.000s      0.000w    583 calls
HF: Form F                  :      0.000u      0.000s      0.001w    583 calls
HF: DIIS                    :      0.033u      0.033s      0.041w    583 calls
| DIISManager::add_entry    :      0.000u      0.000s      0.011w    546 calls
| DIISManager::extrapolate  :      0.033u      0.033s      0.025w    509 calls
| | DIISManager::extrapolate: bMatrix setup:      0.000u      0.017s      0.010w    509 calls
| | DIISManager::extrapolate: bMatrix pseudoinverse:      0.017u      0.000s      0.008w    509 calls
| | DIISManager::extrapolate: form new data:      0.017u      0.017s      0.006w    509 calls
HF: Form C                  :      0.033u      0.000s      0.014w    583 calls
HF: Form D                  :      0.000u      0.017s      0.001w    583 calls
DFMP2 Singles               :      0.000u      0.000s      0.001w     37 calls
DFMP2 Aia                   :      0.650u      0.017s      0.396w     37 calls
| DFMP2 (A|mn)              :      0.133u      0.000s      0.057w     37 calls
| DFMP2 (A|mn)C_mi          :      0.000u      0.000s      0.000w     37 calls
| DFMP2 (A|mi)C_na          :      0.000u      0.000s      0.001w     37 calls
| DFMP2 Aia Write           :      0.000u      0.000s      0.001w     37 calls
DFMP2 Qia                   :      0.417u      0.000s      0.270w     37 calls
| DFMP2 Metric              :      0.417u      0.000s      0.261w     37 calls
| DFMP2 Aia Read            :      0.000u      0.000s      0.003w     37 calls
| DFMP2 (Q|A)(A|ia)         :      0.000u      0.000s      0.001w     37 calls
| DFMP2 Qia Write           :      0.000u      0.000s      0.001w     37 calls
DFMP2 Energy                :      0.017u      0.017s      0.010w     37 calls
| DFMP2 Qia Read            :      0.000u      0.000s      0.000w     74 calls

***********************************************************

Host: adabbott

Timers On : Mon Sep 10 16:57:56 2018
Timers Off: Mon Sep 10 16:58:04 2018

Wall Time:        7.78 seconds

JK: (A|mn)                  :      0.250u      0.000s      0.134w     37 calls
JK: (A|Q)^-1/2              :      0.483u      0.000s      0.298w     37 calls
JK: (Q|mn)                  :      0.000u      0.000s      0.003w     37 calls
HF: Form H                  :      0.017u      0.000s      0.023w     37 calls
HF: Form S/X                :      0.000u      0.000s      0.002w     37 calls
HF: Guess                   :      2.183u      0.000s      1.319w     37 calls
SAD Guess                   :      2.067u      0.000s      1.265w     37 calls
HF: Form G                  :      0.067u      0.000s      0.047w    583 calls
JK: D                       :      0.000u      0.000s      0.001w    583 calls
JK: USO2AO                  :      0.000u      0.000s      0.001w    583 calls
JK: JK                      :      0.050u      0.000s      0.041w    583 calls
JK: J                       :      0.000u      0.000s      0.004w    583 calls
JK: J1                      :      0.000u      0.000s      0.002w    583 calls
JK: J2                      :      0.000u      0.000s      0.001w    583 calls
JK: K                       :      0.050u      0.000s      0.032w    583 calls
JK: K1                      :      0.033u      0.000s      0.025w    583 calls
JK: K2                      :      0.017u      0.000s      0.006w    583 calls
JK: AO2USO                  :      0.017u      0.000s      0.000w    583 calls
HF: Form F                  :      0.000u      0.000s      0.001w    583 calls
HF: DIIS                    :      0.033u      0.033s      0.041w    583 calls
DIISManager::add_entry      :      0.000u      0.000s      0.011w    546 calls
DIISManager::extrapolate    :      0.033u      0.033s      0.025w    509 calls
DIISManager::extrapolate: bMatrix setup:      0.017u      0.000s      0.009w    509 calls
DIISManager::extrapolate: bMatrix pseudoinverse:      0.017u      0.033s      0.008w    509 calls
DIISManager::extrapolate: form new data:      0.000u      0.000s      0.006w    509 calls
HF: Form C                  :      0.017u      0.000s      0.014w    583 calls
HF: Form D                  :      0.000u      0.000s      0.001w    583 calls
DFMP2 Singles               :      0.000u      0.000s      0.001w     37 calls
DFMP2 Aia                   :      0.633u      0.000s      0.396w     37 calls
DFMP2 (A|mn)                :      0.083u      0.000s      0.056w     37 calls
DFMP2 (A|mn)C_mi            :      0.000u      0.000s      0.000w     37 calls
DFMP2 (A|mi)C_na            :      0.000u      0.000s      0.001w     37 calls
DFMP2 Aia Write             :      0.000u      0.000s      0.001w     37 calls
DFMP2 Qia                   :      0.417u      0.017s      0.270w     37 calls
DFMP2 Metric                :      0.383u      0.017s      0.260w     37 calls
DFMP2 Aia Read              :      0.000u      0.000s      0.003w     37 calls
DFMP2 (Q|A)(A|ia)           :      0.000u      0.000s      0.001w     37 calls
DFMP2 Qia Write             :      0.017u      0.000s      0.001w     37 calls
DFMP2 Energy                :      0.017u      0.000s      0.010w     37 calls
DFMP2 Qia Read              :      0.000u      0.000s      0.000w     74 calls

-----------------------------------------------------------
JK: (A|mn)                  :      0.250u      0.000s      0.134w     37 calls
JK: (A|Q)^-1/2              :      0.483u      0.000s      0.298w     37 calls
JK: (Q|mn)                  :      0.000u      0.000s      0.003w     37 calls
HF: Form H                  :      0.017u      0.000s      0.023w     37 calls
HF: Form S/X                :      0.000u      0.000s      0.002w     37 calls
HF: Guess                   :      2.183u      0.000s      1.319w     37 calls
| SAD Guess                 :      2.067u      0.000s      1.265w     37 calls
HF: Form G                  :      0.067u      0.000s      0.047w    583 calls
| JK: D                     :      0.000u      0.000s      0.001w    583 calls
| JK: USO2AO                :      0.000u      0.000s      0.001w    583 calls
| JK: JK                    :      0.050u      0.000s      0.041w    583 calls
| | JK: J                   :      0.000u      0.000s      0.004w    583 calls
| | | JK: J1                :      0.000u      0.000s      0.002w    583 calls
| | | JK: J2                :      0.000u      0.000s      0.001w    583 calls
| | JK: K                   :      0.050u      0.000s      0.032w    583 calls
| | | JK: K1                :      0.033u      0.000s      0.025w    583 calls
| | | JK: K2                :      0.017u      0.000s      0.006w    583 calls
| JK: AO2USO                :      0.017u      0.000s      0.000w    583 calls
HF: Form F                  :      0.000u      0.000s      0.001w    583 calls
HF: DIIS                    :      0.033u      0.033s      0.041w    583 calls
| DIISManager::add_entry    :      0.000u      0.000s      0.011w    546 calls
| DIISManager::extrapolate  :      0.033u      0.033s      0.025w    509 calls
| | DIISManager::extrapolate: bMatrix setup:      0.017u      0.000s      0.009w    509 calls
| | DIISManager::extrapolate: bMatrix pseudoinverse:      0.017u      0.033s      0.008w    509 calls
| | DIISManager::extrapolate: form new data:      0.000u      0.000s      0.006w    509 calls
HF: Form C                  :      0.017u      0.000s      0.014w    583 calls
HF: Form D                  :      0.000u      0.000s      0.001w    583 calls
DFMP2 Singles               :      0.000u      0.000s      0.001w     37 calls
DFMP2 Aia                   :      0.633u      0.000s      0.396w     37 calls
| DFMP2 (A|mn)              :      0.083u      0.000s      0.056w     37 calls
| DFMP2 (A|mn)C_mi          :      0.000u      0.000s      0.000w     37 calls
| DFMP2 (A|mi)C_na          :      0.000u      0.000s      0.001w     37 calls
| DFMP2 Aia Write           :      0.000u      0.000s      0.001w     37 calls
DFMP2 Qia                   :      0.417u      0.017s      0.270w     37 calls
| DFMP2 Metric              :      0.383u      0.017s      0.260w     37 calls
| DFMP2 Aia Read            :      0.000u      0.000s      0.003w     37 calls
| DFMP2 (Q|A)(A|ia)         :      0.000u      0.000s      0.001w     37 calls
| DFMP2 Qia Write           :      0.017u      0.000s      0.001w     37 calls
DFMP2 Energy                :      0.017u      0.000s      0.010w     37 calls
| DFMP2 Qia Read            :      0.000u      0.000s      0.000w     74 calls

***********************************************************

Host: adabbott

Timers On : Mon Sep 10 17:00:17 2018
[...]

Host: adabbott

Timers On : Mon Sep 10 17:19:46 2018
Timers Off: Mon Sep 10 17:19:51 2018

Wall Time:        4.78 seconds

JK: (A|mn)                  :      0.133u      0.000s      0.068w     19 calls
JK: (A|Q)^-1/2              :      0.300u      0.000s      0.153w     19 calls
JK: (Q|mn)                  :      0.000u      0.000s      0.001w     19 calls
HF: Form H                  :      0.000u      0.017s      0.012w     19 calls
HF: Form S/X                :      0.000u      0.000s      0.001w     19 calls
HF: Guess                   :      1.117u      0.017s      0.682w     19 calls
SAD Guess                   :      1.100u      0.017s      0.654w     19 calls
HF: Form G                  :      0.017u      0.000s      0.025w    267 calls
JK: D                       :      0.000u      0.000s      0.000w    267 calls
JK: USO2AO                  :      0.000u      0.000s      0.002w    267 calls
JK: JK                      :      0.017u      0.000s      0.019w    267 calls
JK: J                       :      0.000u      0.000s      0.002w    267 calls
JK: J1                      :      0.000u      0.000s      0.001w    267 calls
JK: J2                      :      0.000u      0.000s      0.001w    267 calls
JK: K                       :      0.017u      0.000s      0.015w    267 calls
JK: K1                      :      0.000u      0.000s      0.011w    267 calls
JK: K2                      :      0.017u      0.000s      0.003w    267 calls
JK: AO2USO                  :      0.000u      0.000s      0.001w    267 calls
HF: Form F                  :      0.000u      0.000s      0.000w    267 calls
HF: DIIS                    :      0.033u      0.000s      0.018w    267 calls
DIISManager::add_entry      :      0.000u      0.000s      0.005w    248 calls
DIISManager::extrapolate    :      0.033u      0.000s      0.011w    229 calls
DIISManager::extrapolate: bMatrix setup:      0.017u      0.000s      0.004w    229 calls
DIISManager::extrapolate: bMatrix pseudoinverse:      0.017u      0.000s      0.003w    229 calls
DIISManager::extrapolate: form new data:      0.000u      0.000s      0.003w    229 calls
HF: Form C                  :      0.000u      0.000s      0.006w    267 calls
HF: Form D                  :      0.000u      0.000s      0.000w    267 calls
DFMP2 Singles               :      0.000u      0.000s      0.000w     19 calls
DFMP2 Aia                   :      0.367u      0.000s      0.203w     19 calls
DFMP2 (A|mn)                :      0.083u      0.000s      0.029w     19 calls
DFMP2 (A|mn)C_mi            :      0.000u      0.000s      0.000w     19 calls
DFMP2 (A|mi)C_na            :      0.000u      0.000s      0.000w     19 calls
DFMP2 Aia Write             :      0.000u      0.000s      0.000w     19 calls
DFMP2 Qia                   :      0.217u      0.000s      0.142w     19 calls
DFMP2 Metric                :      0.200u      0.000s      0.137w     19 calls
DFMP2 Aia Read              :      0.000u      0.000s      0.002w     19 calls
DFMP2 (Q|A)(A|ia)           :      0.000u      0.000s      0.000w     19 calls
DFMP2 Qia Write             :      0.017u      0.000s      0.001w     19 calls
DFMP2 Energy                :      0.000u      0.000s      0.004w     19 calls
DFMP2 Qia Read              :      0.000u      0.000s      0.000w     38 calls

-----------------------------------------------------------
JK: (A|mn)                  :      0.133u      0.000s      0.068w     19 calls
JK: (A|Q)^-1/2              :      0.300u      0.000s      0.153w     19 calls
JK: (Q|mn)                  :      0.000u      0.000s      0.001w     19 calls
HF: Form H                  :      0.000u      0.017s      0.012w     19 calls
HF: Form S/X                :      0.000u      0.000s      0.001w     19 calls
HF: Guess                   :      1.117u      0.017s      0.682w     19 calls
| SAD Guess                 :      1.100u      0.017s      0.654w     19 calls
HF: Form G                  :      0.017u      0.000s      0.025w    267 calls
| JK: D                     :      0.000u      0.000s      0.000w    267 calls
| JK: USO2AO                :      0.000u      0.000s      0.002w    267 calls
| JK: JK                    :      0.017u      0.000s      0.019w    267 calls
| | JK: J                   :      0.000u      0.000s      0.002w    267 calls
| | | JK: J1                :      0.000u      0.000s      0.001w    267 calls
| | | JK: J2                :      0.000u      0.000s      0.001w    267 calls
| | JK: K                   :      0.017u      0.000s      0.015w    267 calls
| | | JK: K1                :      0.000u      0.000s      0.011w    267 calls
| | | JK: K2                :      0.017u      0.000s      0.003w    267 calls
| JK: AO2USO                :      0.000u      0.000s      0.001w    267 calls
HF: Form F                  :      0.000u      0.000s      0.000w    267 calls
HF: DIIS                    :      0.033u      0.000s      0.018w    267 calls
| DIISManager::add_entry    :      0.000u      0.000s      0.005w    248 calls
| DIISManager::extrapolate  :      0.033u      0.000s      0.011w    229 calls
| | DIISManager::extrapolate: bMatrix setup:      0.017u      0.000s      0.004w    229 calls
| | DIISManager::extrapolate: bMatrix pseudoinverse:      0.017u      0.000s      0.003w    229 calls
| | DIISManager::extrapolate: form new data:      0.000u      0.000s      0.003w    229 calls
HF: Form C                  :      0.000u      0.000s      0.006w    267 calls
HF: Form D                  :      0.000u      0.000s      0.000w    267 calls
DFMP2 Singles               :      0.000u      0.000s      0.000w     19 calls
DFMP2 Aia                   :      0.367u      0.000s      0.203w     19 calls
| DFMP2 (A|mn)              :      0.083u      0.000s      0.029w     19 calls
| DFMP2 (A|mn)C_mi          :      0.000u      0.000s      0.000w     19 calls
| DFMP2 (A|mi)C_na          :      0.000u      0.000s      0.000w     19 calls
| DFMP2 Aia Write           :      0.000u      0.000s      0.000w     19 calls
DFMP2 Qia                   :      0.217u      0.000s      0.142w     19 calls
| DFMP2 Metric              :      0.200u      0.000s      0.137w     19 calls
| DFMP2 Aia Read            :      0.000u      0.000s      0.002w     19 calls
| DFMP2 (Q|A)(A|ia)         :      0.000u      0.000s      0.000w     19 calls
| DFMP2 Qia Write           :      0.017u      0.000s      0.001w     19 calls
DFMP2 Energy                :      0.000u      0.000s      0.004w     19 calls
| DFMP2 Qia Read            :      0.000u      0.000s      0.000w     38 calls

***********************************************************

Host: adabbott

Timers On : Mon Sep 10 17:20:25 2018
Timers Off: Mon Sep 10 17:20:30 2018

Wall Time:        4.98 seconds

JK: (A|mn)                  :      0.183u      0.000s      0.068w     19 calls
JK: (A|Q)^-1/2              :      0.250u      0.000s      0.153w     19 calls
JK: (Q|mn)                  :      0.000u      0.000s      0.001w     19 calls
HF: Form H                  :      0.000u      0.000s      0.063w     19 calls
HF: Form S/X                :      0.000u      0.000s      0.001w     19 calls
HF: Guess                   :      1.133u      0.017s      0.680w     19 calls
SAD Guess                   :      1.067u      0.017s      0.653w     19 calls
HF: Form G                  :      0.050u      0.000s      0.025w    263 calls
JK: D                       :      0.017u      0.000s      0.000w    263 calls
JK: USO2AO                  :      0.000u      0.000s      0.002w    263 calls
JK: JK                      :      0.017u      0.000s      0.019w    263 calls
JK: J                       :      0.017u      0.000s      0.002w    263 calls
JK: J1                      :      0.017u      0.000s      0.001w    263 calls
JK: J2                      :      0.000u      0.000s      0.001w    263 calls
JK: K                       :      0.000u      0.000s      0.015w    263 calls
JK: K1                      :      0.000u      0.000s      0.012w    263 calls
JK: K2                      :      0.000u      0.000s      0.003w    263 calls
JK: AO2USO                  :      0.017u      0.000s      0.001w    263 calls
HF: Form F                  :      0.000u      0.000s      0.000w    263 calls
HF: DIIS                    :      0.000u      0.000s      0.052w    263 calls
DIISManager::add_entry      :      0.000u      0.000s      0.040w    244 calls
DIISManager::extrapolate    :      0.000u      0.000s      0.010w    225 calls
DIISManager::extrapolate: bMatrix setup:      0.000u      0.000s      0.004w    225 calls
DIISManager::extrapolate: bMatrix pseudoinverse:      0.000u      0.000s      0.003w    225 calls
DIISManager::extrapolate: form new data:      0.000u      0.000s      0.002w    225 calls
HF: Form C                  :      0.000u      0.000s      0.005w    263 calls
HF: Form D                  :      0.000u      0.000s      0.000w    263 calls
DFMP2 Singles               :      0.000u      0.000s      0.000w     19 calls
DFMP2 Aia                   :      0.350u      0.000s      0.219w     19 calls
DFMP2 (A|mn)                :      0.033u      0.000s      0.029w     19 calls
DFMP2 (A|mn)C_mi            :      0.000u      0.000s      0.000w     19 calls
DFMP2 (A|mi)C_na            :      0.000u      0.000s      0.000w     19 calls
DFMP2 Aia Write             :      0.000u      0.000s      0.000w     19 calls
DFMP2 Qia                   :      0.267u      0.000s      0.185w     19 calls
DFMP2 Metric                :      0.267u      0.000s      0.137w     19 calls
DFMP2 Aia Read              :      0.000u      0.000s      0.002w     19 calls
DFMP2 (Q|A)(A|ia)           :      0.000u      0.000s      0.000w     19 calls
DFMP2 Qia Write             :      0.000u      0.000s      0.001w     19 calls
DFMP2 Energy                :      0.000u      0.000s      0.006w     19 calls
DFMP2 Qia Read              :      0.000u      0.000s      0.000w     38 calls

-----------------------------------------------------------
JK: (A|mn)                  :      0.183u      0.000s      0.068w     19 calls
JK: (A|Q)^-1/2              :      0.250u      0.000s      0.153w     19 calls
JK: (Q|mn)                  :      0.000u      0.000s      0.001w     19 calls
HF: Form H                  :      0.000u      0.000s      0.063w     19 calls
HF: Form S/X                :      0.000u      0.000s      0.001w     19 calls
HF: Guess                   :      1.133u      0.017s      0.680w     19 calls
| SAD Guess                 :      1.067u      0.017s      0.653w     19 calls
HF: Form G                  :      0.050u      0.000s      0.025w    263 calls
| JK: D                     :      0.017u      0.000s      0.000w    263 calls
| JK: USO2AO                :      0.000u      0.000s      0.002w    263 calls
| JK: JK                    :      0.017u      0.000s      0.019w    263 calls
| | JK: J                   :      0.017u      0.000s      0.002w    263 calls
| | | JK: J1                :      0.017u      0.000s      0.001w    263 calls
| | | JK: J2                :      0.000u      0.000s      0.001w    263 calls
| | JK: K                   :      0.000u      0.000s      0.015w    263 calls
| | | JK: K1                :      0.000u      0.000s      0.012w    263 calls
| | | JK: K2                :      0.000u      0.000s      0.003w    263 calls
| JK: AO2USO                :      0.017u      0.000s      0.001w    263 calls
HF: Form F                  :      0.000u      0.000s      0.000w    263 calls
HF: DIIS                    :      0.000u      0.000s      0.052w    263 calls
| DIISManager::add_entry    :      0.000u      0.000s      0.040w    244 calls
| DIISManager::extrapolate  :      0.000u      0.000s      0.010w    225 calls
| | DIISManager::extrapolate: bMatrix setup:      0.000u      0.000s      0.004w    225 calls
| | DIISManager::extrapolate: bMatrix pseudoinverse:      0.000u      0.000s      0.003w    225 calls
| | DIISManager::extrapolate: form new data:      0.000u      0.000s      0.002w    225 calls
HF: Form C                  :      0.000u      0.000s      0.005w    263 calls
HF: Form D                  :      0.000u      0.000s      0.000w    263 calls
DFMP2 Singles               :      0.000u      0.000s      0.000w     19 calls
DFMP2 Aia                   :      0.350u      0.000s      0.219w     19 calls
| DFMP2 (A|mn)              :      0.033u      0.000s      0.029w     19 calls
| DFMP2 (A|mn)C_mi          :      0.000u      0.000s      0.000w     19 calls
| DFMP2 (A|mi)C_na          :      0.000u      0.000s      0.000w     19 calls
| DFMP2 Aia Write           :      0.000u      0.000s      0.000w     19 calls
DFMP2 Qia                   :      0.267u      0.000s      0.185w     19 calls
| DFMP2 Metric              :      0.267u      0.000s      0.137w     19 calls
| DFMP2 Aia Read            :      0.000u      0.000s      0.002w     19 calls
| DFMP2 (Q|A)(A|ia)         :      0.000u      0.000s      0.000w     19 calls
| DFMP2 Qia Write           :      0.000u      0.000s      0.001w     19 calls
DFMP2 Energy                :      0.000u      0.000s      0.006w     19 calls
| DFMP2 Qia Read            :      0.000u      0.000s      0.000w     38 calls

***********************************************************

Host: adabbott

Timers On : Mon Sep 10 17:20:48 2018
Timers Off: Mon Sep 10 17:20:53 2018

Wall Time:        4.81 seconds

JK: (A|mn)                  :      0.100u      0.000s      0.068w     19 calls
JK: (A|Q)^-1/2              :      0.267u      0.000s      0.153w     19 calls
JK: (Q|mn)                  :      0.000u      0.000s      0.001w     19 calls
HF: Form H                  :      0.017u      0.000s      0.013w     19 calls
HF: Form S/X                :      0.000u      0.000s      0.001w     19 calls
HF: Guess                   :      1.100u      0.000s      0.681w     19 calls
SAD Guess                   :      1.067u      0.000s      0.653w     19 calls
HF: Form G                  :      0.067u      0.017s      0.025w    265 calls
JK: D                       :      0.000u      0.000s      0.001w    265 calls
JK: USO2AO                  :      0.033u      0.000s      0.002w    265 calls
JK: JK                      :      0.033u      0.017s      0.019w    265 calls
JK: J                       :      0.000u      0.000s      0.002w    265 calls
JK: J1                      :      0.000u      0.000s      0.001w    265 calls
JK: J2                      :      0.000u      0.000s      0.001w    265 calls
JK: K                       :      0.017u      0.017s      0.015w    265 calls
JK: K1                      :      0.017u      0.000s      0.012w    265 calls
JK: K2                      :      0.000u      0.000s      0.003w    265 calls
JK: AO2USO                  :      0.000u      0.000s      0.001w    265 calls
HF: Form F                  :      0.000u      0.000s      0.000w    265 calls
HF: DIIS                    :      0.033u      0.000s      0.018w    265 calls
DIISManager::add_entry      :      0.000u      0.000s      0.005w    246 calls
DIISManager::extrapolate    :      0.017u      0.000s      0.010w    227 calls
DIISManager::extrapolate: bMatrix setup:      0.017u      0.000s      0.004w    227 calls
DIISManager::extrapolate: bMatrix pseudoinverse:      0.000u      0.000s      0.003w    227 calls
DIISManager::extrapolate: form new data:      0.000u      0.000s      0.002w    227 calls
HF: Form C                  :      0.000u      0.000s      0.005w    265 calls
HF: Form D                  :      0.000u      0.000s      0.000w    265 calls
DFMP2 Singles               :      0.000u      0.000s      0.000w     19 calls
DFMP2 Aia                   :      0.300u      0.017s      0.209w     19 calls
DFMP2 (A|mn)                :      0.000u      0.000s      0.028w     19 calls
DFMP2 (A|mn)C_mi            :      0.000u      0.000s      0.000w     19 calls
DFMP2 (A|mi)C_na            :      0.000u      0.000s      0.000w     19 calls
DFMP2 Aia Write             :      0.000u      0.000s      0.000w     19 calls
DFMP2 Qia                   :      0.283u      0.000s      0.159w     19 calls
DFMP2 Metric                :      0.283u      0.000s      0.138w     19 calls
DFMP2 Aia Read              :      0.000u      0.000s      0.002w     19 calls
DFMP2 (Q|A)(A|ia)           :      0.000u      0.000s      0.000w     19 calls
DFMP2 Qia Write             :      0.000u      0.000s      0.001w     19 calls
DFMP2 Energy                :      0.000u      0.000s      0.005w     19 calls
DFMP2 Qia Read              :      0.000u      0.000s      0.000w     38 calls

-----------------------------------------------------------
JK: (A|mn)                  :      0.100u      0.000s      0.068w     19 calls
JK: (A|Q)^-1/2              :      0.267u      0.000s      0.153w     19 calls
JK: (Q|mn)                  :      0.000u      0.000s      0.001w     19 calls
HF: Form H                  :      0.017u      0.000s      0.013w     19 calls
HF: Form S/X                :      0.000u      0.000s      0.001w     19 calls
HF: Guess                   :      1.100u      0.000s      0.681w     19 calls
| SAD Guess                 :      1.067u      0.000s      0.653w     19 calls
HF: Form G                  :      0.067u      0.017s      0.025w    265 calls
| JK: D                     :      0.000u      0.000s      0.001w    265 calls
| JK: USO2AO                :      0.033u      0.000s      0.002w    265 calls
| JK: JK                    :      0.033u      0.017s      0.019w    265 calls
| | JK: J                   :      0.000u      0.000s      0.002w    265 calls
| | | JK: J1                :      0.000u      0.000s      0.001w    265 calls
| | | JK: J2                :      0.000u      0.000s      0.001w    265 calls
| | JK: K                   :      0.017u      0.017s      0.015w    265 calls
| | | JK: K1                :      0.017u      0.000s      0.012w    265 calls
| | | JK: K2                :      0.000u      0.000s      0.003w    265 calls
| JK: AO2USO                :      0.000u      0.000s      0.001w    265 calls
HF: Form F                  :      0.000u      0.000s      0.000w    265 calls
HF: DIIS                    :      0.033u      0.000s      0.018w    265 calls
| DIISManager::add_entry    :      0.000u      0.000s      0.005w    246 calls
| DIISManager::extrapolate  :      0.017u      0.000s      0.010w    227 calls
| | DIISManager::extrapolate: bMatrix setup:      0.017u      0.000s      0.004w    227 calls
| | DIISManager::extrapolate: bMatrix pseudoinverse:      0.000u      0.000s      0.003w    227 calls
| | DIISManager::extrapolate: form new data:      0.000u      0.000s      0.002w    227 calls
HF: Form C                  :      0.000u      0.000s      0.005w    265 calls
HF: Form D                  :      0.000u      0.000s      0.000w    265 calls
DFMP2 Singles               :      0.000u      0.000s      0.000w     19 calls
DFMP2 Aia                   :      0.300u      0.017s      0.209w     19 calls
| DFMP2 (A|mn)              :      0.000u      0.000s      0.028w     19 calls
| DFMP2 (A|mn)C_mi          :      0.000u      0.000s      0.000w     19 calls
| DFMP2 (A|mi)C_na          :      0.000u      0.000s      0.000w     19 calls
| DFMP2 Aia Write           :      0.000u      0.000s      0.000w     19 calls
DFMP2 Qia                   :      0.283u      0.000s      0.159w     19 calls
| DFMP2 Metric              :      0.283u      0.000s      0.138w     19 calls
| DFMP2 Aia Read            :      0.000u      0.000s      0.002w     19 calls
| DFMP2 (Q|A)(A|ia)         :      0.000u      0.000s      0.000w     19 calls
| DFMP2 Qia Write           :      0.000u      0.000s      0.001w     19 calls
DFMP2 Energy                :      0.000u      0.000s      0.005w     19 calls
| DFMP2 Qia Read            :      0.000u      0.000s      0.000w     38 calls

***********************************************************
