
Host: adabbott

Timers On : Thu Sep  6 12:41:08 2018
Timers Off: Thu Sep  6 12:41:11 2018

Wall Time:        3.49 seconds

JK: (A|mn)                  :      0.150u      0.000s      0.047w     13 calls
JK: (A|Q)^-1/2              :      0.117u      0.000s      0.105w     13 calls
JK: (Q|mn)                  :      0.000u      0.000s      0.001w     13 calls
HF: Form H                  :      0.000u      0.000s      0.008w     13 calls
HF: Form S/X                :      0.000u      0.000s      0.001w     13 calls
HF: Guess                   :      0.783u      0.000s      0.470w     13 calls
SAD Guess                   :      0.700u      0.000s      0.451w     13 calls
HF: Form G                  :      0.033u      0.000s      0.016w    203 calls
JK: D                       :      0.000u      0.000s      0.000w    203 calls
JK: USO2AO                  :      0.000u      0.000s      0.000w    203 calls
JK: JK                      :      0.033u      0.000s      0.014w    203 calls
JK: J                       :      0.000u      0.000s      0.002w    203 calls
JK: J1                      :      0.000u      0.000s      0.001w    203 calls
JK: J2                      :      0.000u      0.000s      0.000w    203 calls
JK: K                       :      0.033u      0.000s      0.011w    203 calls
JK: K1                      :      0.033u      0.000s      0.009w    203 calls
JK: K2                      :      0.000u      0.000s      0.002w    203 calls
JK: AO2USO                  :      0.000u      0.000s      0.000w    203 calls
HF: Form F                  :      0.000u      0.000s      0.000w    203 calls
HF: DIIS                    :      0.033u      0.000s      0.014w    203 calls
DIISManager::add_entry      :      0.017u      0.000s      0.004w    190 calls
DIISManager::extrapolate    :      0.017u      0.000s      0.009w    177 calls
DIISManager::extrapolate: bMatrix setup:      0.017u      0.000s      0.003w    177 calls
DIISManager::extrapolate: bMatrix pseudoinverse:      0.000u      0.000s      0.003w    177 calls
DIISManager::extrapolate: form new data:      0.000u      0.000s      0.002w    177 calls
HF: Form C                  :      0.000u      0.000s      0.005w    203 calls
HF: Form D                  :      0.000u      0.000s      0.000w    203 calls
DFMP2 Singles               :      0.000u      0.000s      0.000w     13 calls
DFMP2 Aia                   :      0.250u      0.000s      0.141w     13 calls
DFMP2 (A|mn)                :      0.067u      0.000s      0.020w     13 calls
DFMP2 (A|mn)C_mi            :      0.000u      0.000s      0.000w     13 calls
DFMP2 (A|mi)C_na            :      0.000u      0.000s      0.000w     13 calls
DFMP2 Aia Write             :      0.000u      0.000s      0.000w     13 calls
DFMP2 Qia                   :      0.133u      0.000s      0.097w     13 calls
DFMP2 Metric                :      0.117u      0.000s      0.093w     13 calls
DFMP2 Aia Read              :      0.000u      0.000s      0.001w     13 calls
DFMP2 (Q|A)(A|ia)           :      0.000u      0.000s      0.000w     13 calls
DFMP2 Qia Write             :      0.000u      0.000s      0.000w     13 calls
DFMP2 Energy                :      0.000u      0.000s      0.004w     13 calls
DFMP2 Qia Read              :      0.000u      0.000s      0.000w     26 calls

-----------------------------------------------------------
JK: (A|mn)                  :      0.150u      0.000s      0.047w     13 calls
JK: (A|Q)^-1/2              :      0.117u      0.000s      0.105w     13 calls
JK: (Q|mn)                  :      0.000u      0.000s      0.001w     13 calls
HF: Form H                  :      0.000u      0.000s      0.008w     13 calls
HF: Form S/X                :      0.000u      0.000s      0.001w     13 calls
HF: Guess                   :      0.783u      0.000s      0.470w     13 calls
| SAD Guess                 :      0.700u      0.000s      0.451w     13 calls
HF: Form G                  :      0.033u      0.000s      0.016w    203 calls
| JK: D                     :      0.000u      0.000s      0.000w    203 calls
| JK: USO2AO                :      0.000u      0.000s      0.000w    203 calls
| JK: JK                    :      0.033u      0.000s      0.014w    203 calls
| | JK: J                   :      0.000u      0.000s      0.002w    203 calls
| | | JK: J1                :      0.000u      0.000s      0.001w    203 calls
| | | JK: J2                :      0.000u      0.000s      0.000w    203 calls
| | JK: K                   :      0.033u      0.000s      0.011w    203 calls
| | | JK: K1                :      0.033u      0.000s      0.009w    203 calls
| | | JK: K2                :      0.000u      0.000s      0.002w    203 calls
| JK: AO2USO                :      0.000u      0.000s      0.000w    203 calls
HF: Form F                  :      0.000u      0.000s      0.000w    203 calls
HF: DIIS                    :      0.033u      0.000s      0.014w    203 calls
| DIISManager::add_entry    :      0.017u      0.000s      0.004w    190 calls
| DIISManager::extrapolate  :      0.017u      0.000s      0.009w    177 calls
| | DIISManager::extrapolate: bMatrix setup:      0.017u      0.000s      0.003w    177 calls
| | DIISManager::extrapolate: bMatrix pseudoinverse:      0.000u      0.000s      0.003w    177 calls
| | DIISManager::extrapolate: form new data:      0.000u      0.000s      0.002w    177 calls
HF: Form C                  :      0.000u      0.000s      0.005w    203 calls
HF: Form D                  :      0.000u      0.000s      0.000w    203 calls
DFMP2 Singles               :      0.000u      0.000s      0.000w     13 calls
DFMP2 Aia                   :      0.250u      0.000s      0.141w     13 calls
| DFMP2 (A|mn)              :      0.067u      0.000s      0.020w     13 calls
| DFMP2 (A|mn)C_mi          :      0.000u      0.000s      0.000w     13 calls
| DFMP2 (A|mi)C_na          :      0.000u      0.000s      0.000w     13 calls
| DFMP2 Aia Write           :      0.000u      0.000s      0.000w     13 calls
DFMP2 Qia                   :      0.133u      0.000s      0.097w     13 calls
| DFMP2 Metric              :      0.117u      0.000s      0.093w     13 calls
| DFMP2 Aia Read            :      0.000u      0.000s      0.001w     13 calls
| DFMP2 (Q|A)(A|ia)         :      0.000u      0.000s      0.000w     13 calls
| DFMP2 Qia Write           :      0.000u      0.000s      0.000w     13 calls
DFMP2 Energy                :      0.000u      0.000s      0.004w     13 calls
| DFMP2 Qia Read            :      0.000u      0.000s      0.000w     26 calls

***********************************************************

Host: adabbott

Timers On : Thu Sep  6 12:42:53 2018
Timers Off: Thu Sep  6 12:42:54 2018

Wall Time:        1.12 seconds


-----------------------------------------------------------

***********************************************************

Host: adabbott

Timers On : Thu Sep  6 12:43:27 2018
Timers Off: Thu Sep  6 12:43:28 2018

Wall Time:        1.14 seconds


-----------------------------------------------------------

***********************************************************

Host: adabbott

Timers On : Thu Sep  6 12:43:42 2018
Timers Off: Thu Sep  6 12:43:43 2018

Wall Time:        1.14 seconds


-----------------------------------------------------------

***********************************************************

Host: adabbott

Timers On : Thu Sep  6 12:45:09 2018
Timers Off: Thu Sep  6 12:45:10 2018

Wall Time:        1.14 seconds


-----------------------------------------------------------

***********************************************************

Host: adabbott

Timers On : Thu Sep  6 12:45:24 2018
Timers Off: Thu Sep  6 12:45:25 2018

Wall Time:        1.12 seconds


-----------------------------------------------------------

***********************************************************

Host: adabbott

Timers On : Thu Sep  6 12:45:35 2018
Timers Off: Thu Sep  6 12:45:37 2018

Wall Time:        1.15 seconds


-----------------------------------------------------------

***********************************************************

Host: adabbott

Timers On : Thu Sep  6 12:46:04 2018
Timers Off: Thu Sep  6 12:46:05 2018

Wall Time:        1.14 seconds


-----------------------------------------------------------

***********************************************************

Host: adabbott

Timers On : Thu Sep  6 12:47:34 2018
Timers Off: Thu Sep  6 12:47:35 2018

Wall Time:        1.14 seconds


-----------------------------------------------------------

***********************************************************

Host: adabbott

Timers On : Thu Sep  6 12:47:52 2018
Timers Off: Thu Sep  6 12:47:53 2018

Wall Time:        1.13 seconds


-----------------------------------------------------------

***********************************************************

Host: adabbott

Timers On : Thu Sep  6 13:40:47 2018
Timers Off: Thu Sep  6 13:40:49 2018

Wall Time:        1.25 seconds


-----------------------------------------------------------

***********************************************************

Host: adabbott

Timers On : Thu Sep  6 13:41:24 2018
Timers Off: Thu Sep  6 13:41:25 2018

Wall Time:        1.25 seconds


-----------------------------------------------------------

***********************************************************
